 Entering Gaussian System, Link 0=g16
 Initial command:
 /home/jsn/save/G16-linux/g16/l1.exe "/home/jsn/save/G16-linux/g16/scratch/Gau-56857.inp" -scrdir="/home/jsn/save/G16-linux/g16/scratch/"
 Entering Link 1 = /home/jsn/save/G16-linux/g16/l1.exe PID=     56861.
  
 Copyright (c) 1988,1990,1992,1993,1995,1998,2003,2009,2016,
            Gaussian, Inc.  All Rights Reserved.
  
 This is part of the Gaussian(R) 16 program.  It is based on
 the Gaussian(R) 09 system (copyright 2009, Gaussian, Inc.),
 the Gaussian(R) 03 system (copyright 2003, Gaussian, Inc.),
 the Gaussian(R) 98 system (copyright 1998, Gaussian, Inc.),
 the Gaussian(R) 94 system (copyright 1995, Gaussian, Inc.),
 the Gaussian 92(TM) system (copyright 1992, Gaussian, Inc.),
 the Gaussian 90(TM) system (copyright 1990, Gaussian, Inc.),
 the Gaussian 88(TM) system (copyright 1988, Gaussian, Inc.),
 the Gaussian 86(TM) system (copyright 1986, Carnegie Mellon
 University), and the Gaussian 82(TM) system (copyright 1983,
 Carnegie Mellon University). Gaussian is a federally registered
 trademark of Gaussian, Inc.
  
 This software contains proprietary and confidential information,
 including trade secrets, belonging to Gaussian, Inc.
  
 This software is provided under written license and may be
 used, copied, transmitted, or stored only in accord with that
 written license.
  
 The following legend is applicable only to US Government
 contracts under FAR:
  
                    RESTRICTED RIGHTS LEGEND
  
 Use, reproduction and disclosure by the US Government is
 subject to restrictions as set forth in subparagraphs (a)
 and (c) of the Commercial Computer Software - Restricted
 Rights clause in FAR 52.227-19.
  
 Gaussian, Inc.
 340 Quinnipiac St., Bldg. 40, Wallingford CT 06492
  
  
 ---------------------------------------------------------------
 Warning -- This program may not be used in any manner that
 competes with the business of Gaussian, Inc. or will provide
 assistance to any competitor of Gaussian, Inc.  The licensee
 of this program is prohibited from giving any competitor of
 Gaussian, Inc. access to this program.  By using this program,
 the user acknowledges that Gaussian, Inc. is engaged in the
 business of creating and licensing software in the field of
 computational chemistry and represents and warrants to the
 licensee that it is not a competitor of Gaussian, Inc. and that
 it will not use this program in any manner prohibited above.
 ---------------------------------------------------------------
  

 Cite this work as:
 Gaussian 16, Revision A.03,
 M. J. Frisch, G. W. Trucks, H. B. Schlegel, G. E. Scuseria, 
 M. A. Robb, J. R. Cheeseman, G. Scalmani, V. Barone, 
 G. A. Petersson, H. Nakatsuji, X. Li, M. Caricato, A. V. Marenich, 
 J. Bloino, B. G. Janesko, R. Gomperts, B. Mennucci, H. P. Hratchian, 
 J. V. Ortiz, A. F. Izmaylov, J. L. Sonnenberg, D. Williams-Young, 
 F. Ding, F. Lipparini, F. Egidi, J. Goings, B. Peng, A. Petrone, 
 T. Henderson, D. Ranasinghe, V. G. Zakrzewski, J. Gao, N. Rega, 
 G. Zheng, W. Liang, M. Hada, M. Ehara, K. Toyota, R. Fukuda, 
 J. Hasegawa, M. Ishida, T. Nakajima, Y. Honda, O. Kitao, H. Nakai, 
 T. Vreven, K. Throssell, J. A. Montgomery, Jr., J. E. Peralta, 
 F. Ogliaro, M. J. Bearpark, J. J. Heyd, E. N. Brothers, K. N. Kudin, 
 V. N. Staroverov, T. A. Keith, R. Kobayashi, J. Normand, 
 K. Raghavachari, A. P. Rendell, J. C. Burant, S. S. Iyengar, 
 J. Tomasi, M. Cossi, J. M. Millam, M. Klene, C. Adamo, R. Cammi, 
 J. W. Ochterski, R. L. Martin, K. Morokuma, O. Farkas, 
 J. B. Foresman, and D. J. Fox, Gaussian, Inc., Wallingford CT, 2016.
 
 ******************************************
 Gaussian 16:  ES64L-G16RevA.03 25-Dec-2016
                13-Sep-2024 
 ******************************************
 %chk=oh.chk
 %mem=4GB
 %nprocshared=4
 Will use up to    4 processors via shared memory.
 -------------------------------------------------------------------
 #p opt freq b3lyp scrf=(solvent=diphenylether,pcm) def2svp em=gd3bj
 -------------------------------------------------------------------
 1/18=20,19=15,26=3,38=1/1,3;
 2/9=110,12=2,17=6,18=5,40=1/2;
 3/5=43,7=101,11=2,25=1,30=1,70=2201,71=1,72=112,74=-5,124=41/1,2,3;
 4//1;
 5/5=2,38=5,53=112/2;
 6/7=2,8=2,9=2,10=2,28=1/1;
 7//1,2,3,16;
 1/18=20,19=15,26=3/3(2);
 2/9=110/2;
 99//99;
 2/9=110/2;
 3/5=43,7=101,11=2,25=1,30=1,70=2205,71=1,72=112,74=-5,124=41/1,2,3;
 4/5=5,16=3,69=1/1;
 5/5=2,38=5,53=112/2;
 7//1,2,3,16;
 1/18=20,19=15,26=3/3(-5);
 2/9=110/2;
 6/7=2,8=2,9=2,10=2,19=2,28=1/1;
 99/9=1/99;
 Leave Link    1 at Fri Sep 13 20:00:33 2024, MaxMem=   536870912 cpu:               0.5 elap:               0.1
 (Enter /home/jsn/save/G16-linux/g16/l101.exe)
 -------------------
 Title Card Required
 -------------------
 Symbolic Z-matrix:
 Charge =  0 Multiplicity = 1
 C                     1.16331   2.17614  -0.44299 
 H                     1.13159   1.82693  -1.48883 
 C                    -0.09532   1.68698   0.30087 
 H                    -0.09532   2.17945   1.28912 
 C                    -1.35394   2.17616  -0.44298 
 H                    -1.29736   3.2766   -0.49506 
 H                    -1.32223   1.82697  -1.48883 
 C                    -2.7044    1.78029   0.18996 
 H                    -2.58928   1.82868   1.28713 
 C                    -3.02659   0.20432  -0.13726 
 C                    -3.23297  -0.75515   0.86144 
 C                    -3.23023  -0.17712  -1.47278 
 C                    -3.60295  -2.0633    0.54085 
 H                    -3.07298  -0.47863   1.90577 
 C                    -3.60652  -1.48099  -1.80077 
 H                    -3.08358   0.55261  -2.27333 
 C                    -3.78912  -2.43346  -0.79324 
 H                    -3.73716  -2.79878   1.33784 
 H                    -3.75378  -1.75659  -2.84829 
 H                    -4.07397  -3.45739  -1.0474 
 C                     2.51378   1.78028   0.18995 
 H                     2.39868   1.82865   1.28712 
 C                     3.02659   0.20431  -0.13731 
 C                     3.23313  -0.75514   0.86137 
 C                     3.23003  -0.17715  -1.47285 
 C                     3.6031   -2.06328   0.54077 
 H                     3.07328  -0.4786    1.90573 
 C                     3.6063   -1.48103  -1.80087 
 H                     3.08324   0.55255  -2.2734 
 C                     3.78907  -2.43347  -0.79335 
 H                     3.73743  -2.79874   1.33776 
 H                     3.75341  -1.75664  -2.84841 
 H                     4.07391  -3.4574   -1.04754 
 C                     3.61194   2.79447  -0.195 
 H                     3.26644   3.80129   0.09722 
 H                     3.71202   2.8164   -1.29483 
 H                     1.10675   3.27659  -0.4951 
 C                    -3.80257   2.79447  -0.19499 
 H                    -3.45712   3.80129   0.09729 
 H                    -3.90259   2.81646  -1.29482 
 C                     4.97039   2.51504   0.44293 
 H                     5.37479   1.54361   0.11929 
 H                     5.70332   3.29266   0.17592 
 H                     4.89338   2.48966   1.54297 
 C                    -5.16103   2.51494   0.44284 
 H                    -5.89402   3.29248   0.17579 
 H                    -5.56532   1.54346   0.11921 
 H                    -5.08409   2.48958   1.54289 
 O                    -0.05081   0.5591   -0.24658 
 H                     0.44226  -0.24552  -0.14436 
 
 ITRead=  0  0  0  0  0  0  0  0  0  0  0  0  0  0  0  0  0  0  0  0
 ITRead=  0  0  0  0  0  0  0  0  0  0  0  0  0  0  0  0  0  0  0  0
 ITRead=  0  0  0  0  0  0  0  0  0  0
 MicOpt= -1 -1 -1 -1 -1 -1 -1 -1 -1 -1 -1 -1 -1 -1 -1 -1 -1 -1 -1 -1
 MicOpt= -1 -1 -1 -1 -1 -1 -1 -1 -1 -1 -1 -1 -1 -1 -1 -1 -1 -1 -1 -1
 MicOpt= -1 -1 -1 -1 -1 -1 -1 -1 -1 -1
 NAtoms=     50 NQM=       50 NQMF=       0 NMMI=      0 NMMIF=      0
                NMic=       0 NMicF=      0.
                    Isotopes and Nuclear Properties:
 (Nuclear quadrupole moments (NQMom) in fm**2, nuclear magnetic moments (NMagM)
  in nuclear magnetons)

  Atom         1           2           3           4           5           6           7           8           9          10
 IAtWgt=          12           1          12           1          12           1           1          12           1          12
 AtmWgt=  12.0000000   1.0078250  12.0000000   1.0078250  12.0000000   1.0078250   1.0078250  12.0000000   1.0078250  12.0000000
 NucSpn=           0           1           0           1           0           1           1           0           1           0
 AtZEff=  -0.0000000  -0.0000000  -0.0000000  -0.0000000  -0.0000000  -0.0000000  -0.0000000  -0.0000000  -0.0000000  -0.0000000
 NQMom=    0.0000000   0.0000000   0.0000000   0.0000000   0.0000000   0.0000000   0.0000000   0.0000000   0.0000000   0.0000000
 NMagM=    0.0000000   2.7928460   0.0000000   2.7928460   0.0000000   2.7928460   2.7928460   0.0000000   2.7928460   0.0000000
 AtZNuc=   6.0000000   1.0000000   6.0000000   1.0000000   6.0000000   1.0000000   1.0000000   6.0000000   1.0000000   6.0000000

  Atom        11          12          13          14          15          16          17          18          19          20
 IAtWgt=          12          12          12           1          12           1          12           1           1           1
 AtmWgt=  12.0000000  12.0000000  12.0000000   1.0078250  12.0000000   1.0078250  12.0000000   1.0078250   1.0078250   1.0078250
 NucSpn=           0           0           0           1           0           1           0           1           1           1
 AtZEff=  -0.0000000  -0.0000000  -0.0000000  -0.0000000  -0.0000000  -0.0000000  -0.0000000  -0.0000000  -0.0000000  -0.0000000
 NQMom=    0.0000000   0.0000000   0.0000000   0.0000000   0.0000000   0.0000000   0.0000000   0.0000000   0.0000000   0.0000000
 NMagM=    0.0000000   0.0000000   0.0000000   2.7928460   0.0000000   2.7928460   0.0000000   2.7928460   2.7928460   2.7928460
 AtZNuc=   6.0000000   6.0000000   6.0000000   1.0000000   6.0000000   1.0000000   6.0000000   1.0000000   1.0000000   1.0000000

  Atom        21          22          23          24          25          26          27          28          29          30
 IAtWgt=          12           1          12          12          12          12           1          12           1          12
 AtmWgt=  12.0000000   1.0078250  12.0000000  12.0000000  12.0000000  12.0000000   1.0078250  12.0000000   1.0078250  12.0000000
 NucSpn=           0           1           0           0           0           0           1           0           1           0
 AtZEff=  -0.0000000  -0.0000000  -0.0000000  -0.0000000  -0.0000000  -0.0000000  -0.0000000  -0.0000000  -0.0000000  -0.0000000
 NQMom=    0.0000000   0.0000000   0.0000000   0.0000000   0.0000000   0.0000000   0.0000000   0.0000000   0.0000000   0.0000000
 NMagM=    0.0000000   2.7928460   0.0000000   0.0000000   0.0000000   0.0000000   2.7928460   0.0000000   2.7928460   0.0000000
 AtZNuc=   6.0000000   1.0000000   6.0000000   6.0000000   6.0000000   6.0000000   1.0000000   6.0000000   1.0000000   6.0000000

  Atom        31          32          33          34          35          36          37          38          39          40
 IAtWgt=           1           1           1          12           1           1           1          12           1           1
 AtmWgt=   1.0078250   1.0078250   1.0078250  12.0000000   1.0078250   1.0078250   1.0078250  12.0000000   1.0078250   1.0078250
 NucSpn=           1           1           1           0           1           1           1           0           1           1
 AtZEff=  -0.0000000  -0.0000000  -0.0000000  -0.0000000  -0.0000000  -0.0000000  -0.0000000  -0.0000000  -0.0000000  -0.0000000
 NQMom=    0.0000000   0.0000000   0.0000000   0.0000000   0.0000000   0.0000000   0.0000000   0.0000000   0.0000000   0.0000000
 NMagM=    2.7928460   2.7928460   2.7928460   0.0000000   2.7928460   2.7928460   2.7928460   0.0000000   2.7928460   2.7928460
 AtZNuc=   1.0000000   1.0000000   1.0000000   6.0000000   1.0000000   1.0000000   1.0000000   6.0000000   1.0000000   1.0000000

  Atom        41          42          43          44          45          46          47          48          49          50
 IAtWgt=          12           1           1           1          12           1           1           1          16           1
 AtmWgt=  12.0000000   1.0078250   1.0078250   1.0078250  12.0000000   1.0078250   1.0078250   1.0078250  15.9949146   1.0078250
 NucSpn=           0           1           1           1           0           1           1           1           0           1
 AtZEff=  -0.0000000  -0.0000000  -0.0000000  -0.0000000  -0.0000000  -0.0000000  -0.0000000  -0.0000000  -0.0000000  -0.0000000
 NQMom=    0.0000000   0.0000000   0.0000000   0.0000000   0.0000000   0.0000000   0.0000000   0.0000000   0.0000000   0.0000000
 NMagM=    0.0000000   2.7928460   2.7928460   2.7928460   0.0000000   2.7928460   2.7928460   2.7928460   0.0000000   2.7928460
 AtZNuc=   6.0000000   1.0000000   1.0000000   1.0000000   6.0000000   1.0000000   1.0000000   1.0000000   8.0000000   1.0000000
 Leave Link  101 at Fri Sep 13 20:00:35 2024, MaxMem=   536870912 cpu:               7.3 elap:               1.9
 (Enter /home/jsn/save/G16-linux/g16/l103.exe)

 GradGradGradGradGradGradGradGradGradGradGradGradGradGradGradGradGradGrad
 Berny optimization.
 Initialization pass.
                           ----------------------------
                           !    Initial Parameters    !
                           ! (Angstroms and Degrees)  !
 --------------------------                            --------------------------
 ! Name  Definition              Value          Derivative Info.                !
 --------------------------------------------------------------------------------
 ! R1    R(1,2)                  1.1031         estimate D2E/DX2                !
 ! R2    R(1,3)                  1.5417         estimate D2E/DX2                !
 ! R3    R(1,21)                 1.5431         estimate D2E/DX2                !
 ! R4    R(1,37)                 1.1031         estimate D2E/DX2                !
 ! R5    R(3,4)                  1.1042         estimate D2E/DX2                !
 ! R6    R(3,5)                  1.5417         estimate D2E/DX2                !
 ! R7    R(3,49)                 1.2545         estimate D2E/DX2                !
 ! R8    R(5,6)                  1.1031         estimate D2E/DX2                !
 ! R9    R(5,7)                  1.1031         estimate D2E/DX2                !
 ! R10   R(5,8)                  1.5431         estimate D2E/DX2                !
 ! R11   R(8,9)                  1.1043         estimate D2E/DX2                !
 ! R12   R(8,10)                 1.6415         estimate D2E/DX2                !
 ! R13   R(8,38)                 1.5436         estimate D2E/DX2                !
 ! R14   R(10,11)                1.4002         estimate D2E/DX2                !
 ! R15   R(10,12)                1.4038         estimate D2E/DX2                !
 ! R16   R(11,13)                1.3967         estimate D2E/DX2                !
 ! R17   R(11,14)                1.0921         estimate D2E/DX2                !
 ! R18   R(12,15)                1.3962         estimate D2E/DX2                !
 ! R19   R(12,16)                1.0931         estimate D2E/DX2                !
 ! R20   R(13,17)                1.397          estimate D2E/DX2                !
 ! R21   R(13,18)                1.0928         estimate D2E/DX2                !
 ! R22   R(15,17)                1.3984         estimate D2E/DX2                !
 ! R23   R(15,19)                1.0931         estimate D2E/DX2                !
 ! R24   R(17,20)                1.0928         estimate D2E/DX2                !
 ! R25   R(21,22)                1.1043         estimate D2E/DX2                !
 ! R26   R(21,23)                1.6893         estimate D2E/DX2                !
 ! R27   R(21,34)                1.5436         estimate D2E/DX2                !
 ! R28   R(23,24)                1.4002         estimate D2E/DX2                !
 ! R29   R(23,25)                1.4038         estimate D2E/DX2                !
 ! R30   R(24,26)                1.3967         estimate D2E/DX2                !
 ! R31   R(24,27)                1.0921         estimate D2E/DX2                !
 ! R32   R(25,28)                1.3962         estimate D2E/DX2                !
 ! R33   R(25,29)                1.0931         estimate D2E/DX2                !
 ! R34   R(26,30)                1.397          estimate D2E/DX2                !
 ! R35   R(26,31)                1.0928         estimate D2E/DX2                !
 ! R36   R(28,30)                1.3984         estimate D2E/DX2                !
 ! R37   R(28,32)                1.0931         estimate D2E/DX2                !
 ! R38   R(30,33)                1.0928         estimate D2E/DX2                !
 ! R39   R(34,35)                1.1038         estimate D2E/DX2                !
 ! R40   R(34,36)                1.1046         estimate D2E/DX2                !
 ! R41   R(34,41)                1.5266         estimate D2E/DX2                !
 ! R42   R(38,39)                1.1038         estimate D2E/DX2                !
 ! R43   R(38,40)                1.1046         estimate D2E/DX2                !
 ! R44   R(38,45)                1.5266         estimate D2E/DX2                !
 ! R45   R(41,42)                1.1009         estimate D2E/DX2                !
 ! R46   R(41,43)                1.1014         estimate D2E/DX2                !
 ! R47   R(41,44)                1.103          estimate D2E/DX2                !
 ! R48   R(45,46)                1.1014         estimate D2E/DX2                !
 ! R49   R(45,47)                1.1009         estimate D2E/DX2                !
 ! R50   R(45,48)                1.103          estimate D2E/DX2                !
 ! R51   R(49,50)                0.9492         estimate D2E/DX2                !
 ! A1    A(2,1,3)              109.4841         estimate D2E/DX2                !
 ! A2    A(2,1,21)             109.4417         estimate D2E/DX2                !
 ! A3    A(2,1,37)             105.6374         estimate D2E/DX2                !
 ! A4    A(3,1,21)             115.7974         estimate D2E/DX2                !
 ! A5    A(3,1,37)             107.3054         estimate D2E/DX2                !
 ! A6    A(21,1,37)            108.6729         estimate D2E/DX2                !
 ! A7    A(1,3,4)              106.8778         estimate D2E/DX2                !
 ! A8    A(1,3,5)              109.4525         estimate D2E/DX2                !
 ! A9    A(1,3,49)              92.6218         estimate D2E/DX2                !
 ! A10   A(4,3,5)              106.8769         estimate D2E/DX2                !
 ! A11   A(4,3,49)             142.3334         estimate D2E/DX2                !
 ! A12   A(5,3,49)              95.9515         estimate D2E/DX2                !
 ! A13   A(3,5,6)              107.3044         estimate D2E/DX2                !
 ! A14   A(3,5,7)              109.4851         estimate D2E/DX2                !
 ! A15   A(3,5,8)              115.7969         estimate D2E/DX2                !
 ! A16   A(6,5,7)              105.6378         estimate D2E/DX2                !
 ! A17   A(6,5,8)              108.6731         estimate D2E/DX2                !
 ! A18   A(7,5,8)              109.4417         estimate D2E/DX2                !
 ! A19   A(5,8,9)              107.7624         estimate D2E/DX2                !
 ! A20   A(5,8,10)             109.6521         estimate D2E/DX2                !
 ! A21   A(5,8,38)             110.5963         estimate D2E/DX2                !
 ! A22   A(9,8,10)             105.1052         estimate D2E/DX2                !
 ! A23   A(9,8,38)             107.0476         estimate D2E/DX2                !
 ! A24   A(10,8,38)            116.1957         estimate D2E/DX2                !
 ! A25   A(8,10,11)            122.9992         estimate D2E/DX2                !
 ! A26   A(8,10,12)            118.6199         estimate D2E/DX2                !
 ! A27   A(11,10,12)           118.0988         estimate D2E/DX2                !
 ! A28   A(10,11,13)           121.1383         estimate D2E/DX2                !
 ! A29   A(10,11,14)           119.1408         estimate D2E/DX2                !
 ! A30   A(13,11,14)           119.6977         estimate D2E/DX2                !
 ! A31   A(10,12,15)           121.0885         estimate D2E/DX2                !
 ! A32   A(10,12,16)           119.7288         estimate D2E/DX2                !
 ! A33   A(15,12,16)           119.1801         estimate D2E/DX2                !
 ! A34   A(11,13,17)           120.1765         estimate D2E/DX2                !
 ! A35   A(11,13,18)           119.7017         estimate D2E/DX2                !
 ! A36   A(17,13,18)           120.1194         estimate D2E/DX2                !
 ! A37   A(12,15,17)           120.1332         estimate D2E/DX2                !
 ! A38   A(12,15,19)           119.7938         estimate D2E/DX2                !
 ! A39   A(17,15,19)           120.0725         estimate D2E/DX2                !
 ! A40   A(13,17,15)           119.3514         estimate D2E/DX2                !
 ! A41   A(13,17,20)           120.3409         estimate D2E/DX2                !
 ! A42   A(15,17,20)           120.3077         estimate D2E/DX2                !
 ! A43   A(1,21,22)            107.7629         estimate D2E/DX2                !
 ! A44   A(1,21,23)            115.1849         estimate D2E/DX2                !
 ! A45   A(1,21,34)            110.5962         estimate D2E/DX2                !
 ! A46   A(22,21,23)           105.3662         estimate D2E/DX2                !
 ! A47   A(22,21,34)           107.0473         estimate D2E/DX2                !
 ! A48   A(23,21,34)           110.4064         estimate D2E/DX2                !
 ! A49   A(21,23,24)           123.0831         estimate D2E/DX2                !
 ! A50   A(21,23,25)           118.804          estimate D2E/DX2                !
 ! A51   A(24,23,25)           118.0988         estimate D2E/DX2                !
 ! A52   A(23,24,26)           121.1384         estimate D2E/DX2                !
 ! A53   A(23,24,27)           119.1409         estimate D2E/DX2                !
 ! A54   A(26,24,27)           119.6975         estimate D2E/DX2                !
 ! A55   A(23,25,28)           121.0885         estimate D2E/DX2                !
 ! A56   A(23,25,29)           119.7288         estimate D2E/DX2                !
 ! A57   A(28,25,29)           119.18           estimate D2E/DX2                !
 ! A58   A(24,26,30)           120.1764         estimate D2E/DX2                !
 ! A59   A(24,26,31)           119.7015         estimate D2E/DX2                !
 ! A60   A(30,26,31)           120.1196         estimate D2E/DX2                !
 ! A61   A(25,28,30)           120.1333         estimate D2E/DX2                !
 ! A62   A(25,28,32)           119.7936         estimate D2E/DX2                !
 ! A63   A(30,28,32)           120.0725         estimate D2E/DX2                !
 ! A64   A(26,30,28)           119.3513         estimate D2E/DX2                !
 ! A65   A(26,30,33)           120.3411         estimate D2E/DX2                !
 ! A66   A(28,30,33)           120.3076         estimate D2E/DX2                !
 ! A67   A(21,34,35)           108.0944         estimate D2E/DX2                !
 ! A68   A(21,34,36)           109.0145         estimate D2E/DX2                !
 ! A69   A(21,34,41)           114.1168         estimate D2E/DX2                !
 ! A70   A(35,34,36)           105.8933         estimate D2E/DX2                !
 ! A71   A(35,34,41)           109.5639         estimate D2E/DX2                !
 ! A72   A(36,34,41)           109.8215         estimate D2E/DX2                !
 ! A73   A(8,38,39)            108.095          estimate D2E/DX2                !
 ! A74   A(8,38,40)            109.0147         estimate D2E/DX2                !
 ! A75   A(8,38,45)            114.1156         estimate D2E/DX2                !
 ! A76   A(39,38,40)           105.8927         estimate D2E/DX2                !
 ! A77   A(39,38,45)           109.565          estimate D2E/DX2                !
 ! A78   A(40,38,45)           109.8214         estimate D2E/DX2                !
 ! A79   A(34,41,42)           111.4416         estimate D2E/DX2                !
 ! A80   A(34,41,43)           111.1997         estimate D2E/DX2                !
 ! A81   A(34,41,44)           111.0286         estimate D2E/DX2                !
 ! A82   A(42,41,43)           107.8952         estimate D2E/DX2                !
 ! A83   A(42,41,44)           107.3689         estimate D2E/DX2                !
 ! A84   A(43,41,44)           107.7259         estimate D2E/DX2                !
 ! A85   A(38,45,46)           111.2002         estimate D2E/DX2                !
 ! A86   A(38,45,47)           111.442          estimate D2E/DX2                !
 ! A87   A(38,45,48)           111.0288         estimate D2E/DX2                !
 ! A88   A(46,45,47)           107.8954         estimate D2E/DX2                !
 ! A89   A(46,45,48)           107.7256         estimate D2E/DX2                !
 ! A90   A(47,45,48)           107.3678         estimate D2E/DX2                !
 ! A91   A(3,49,50)            137.1849         estimate D2E/DX2                !
 ! D1    D(2,1,3,4)           -171.8254         estimate D2E/DX2                !
 ! D2    D(2,1,3,5)            -56.4272         estimate D2E/DX2                !
 ! D3    D(2,1,3,49)            40.8259         estimate D2E/DX2                !
 ! D4    D(21,1,3,4)            63.8997         estimate D2E/DX2                !
 ! D5    D(21,1,3,5)           179.2979         estimate D2E/DX2                !
 ! D6    D(21,1,3,49)          -83.449          estimate D2E/DX2                !
 ! D7    D(37,1,3,4)           -57.6385         estimate D2E/DX2                !
 ! D8    D(37,1,3,5)            57.7597         estimate D2E/DX2                !
 ! D9    D(37,1,3,49)          155.0128         estimate D2E/DX2                !
 ! D10   D(2,1,21,22)         -161.4505         estimate D2E/DX2                !
 ! D11   D(2,1,21,23)          -44.1843         estimate D2E/DX2                !
 ! D12   D(2,1,21,34)           81.8543         estimate D2E/DX2                !
 ! D13   D(3,1,21,22)          -37.1535         estimate D2E/DX2                !
 ! D14   D(3,1,21,23)           80.1126         estimate D2E/DX2                !
 ! D15   D(3,1,21,34)         -153.8487         estimate D2E/DX2                !
 ! D16   D(37,1,21,22)          83.6506         estimate D2E/DX2                !
 ! D17   D(37,1,21,23)        -159.0832         estimate D2E/DX2                !
 ! D18   D(37,1,21,34)         -33.0446         estimate D2E/DX2                !
 ! D19   D(1,3,5,6)            -57.761          estimate D2E/DX2                !
 ! D20   D(1,3,5,7)             56.4263         estimate D2E/DX2                !
 ! D21   D(1,3,5,8)           -179.2983         estimate D2E/DX2                !
 ! D22   D(4,3,5,6)             57.6378         estimate D2E/DX2                !
 ! D23   D(4,3,5,7)            171.8251         estimate D2E/DX2                !
 ! D24   D(4,3,5,8)            -63.8996         estimate D2E/DX2                !
 ! D25   D(49,3,5,6)          -152.6712         estimate D2E/DX2                !
 ! D26   D(49,3,5,7)           -38.4838         estimate D2E/DX2                !
 ! D27   D(49,3,5,8)            85.7915         estimate D2E/DX2                !
 ! D28   D(1,3,49,50)           78.3838         estimate D2E/DX2                !
 ! D29   D(4,3,49,50)          -43.9558         estimate D2E/DX2                !
 ! D30   D(5,3,49,50)         -171.7421         estimate D2E/DX2                !
 ! D31   D(3,5,8,9)             37.1548         estimate D2E/DX2                !
 ! D32   D(3,5,8,10)           -76.7337         estimate D2E/DX2                !
 ! D33   D(3,5,8,38)           153.85           estimate D2E/DX2                !
 ! D34   D(6,5,8,9)            -83.6478         estimate D2E/DX2                !
 ! D35   D(6,5,8,10)           162.4637         estimate D2E/DX2                !
 ! D36   D(6,5,8,38)            33.0474         estimate D2E/DX2                !
 ! D37   D(7,5,8,9)            161.4527         estimate D2E/DX2                !
 ! D38   D(7,5,8,10)            47.5642         estimate D2E/DX2                !
 ! D39   D(7,5,8,38)           -81.8521         estimate D2E/DX2                !
 ! D40   D(5,8,10,11)          121.6276         estimate D2E/DX2                !
 ! D41   D(5,8,10,12)          -64.5946         estimate D2E/DX2                !
 ! D42   D(9,8,10,11)            6.038          estimate D2E/DX2                !
 ! D43   D(9,8,10,12)          179.8158         estimate D2E/DX2                !
 ! D44   D(38,8,10,11)        -112.0746         estimate D2E/DX2                !
 ! D45   D(38,8,10,12)          61.7031         estimate D2E/DX2                !
 ! D46   D(5,8,38,39)          -55.1435         estimate D2E/DX2                !
 ! D47   D(5,8,38,40)           59.5217         estimate D2E/DX2                !
 ! D48   D(5,8,38,45)         -177.3016         estimate D2E/DX2                !
 ! D49   D(9,8,38,39)           61.9931         estimate D2E/DX2                !
 ! D50   D(9,8,38,40)          176.6583         estimate D2E/DX2                !
 ! D51   D(9,8,38,45)          -60.1651         estimate D2E/DX2                !
 ! D52   D(10,8,38,39)         179.0339         estimate D2E/DX2                !
 ! D53   D(10,8,38,40)         -66.3009         estimate D2E/DX2                !
 ! D54   D(10,8,38,45)          56.8757         estimate D2E/DX2                !
 ! D55   D(8,10,11,13)         175.1614         estimate D2E/DX2                !
 ! D56   D(8,10,11,14)          -6.596          estimate D2E/DX2                !
 ! D57   D(12,10,11,13)          1.353          estimate D2E/DX2                !
 ! D58   D(12,10,11,14)        179.5956         estimate D2E/DX2                !
 ! D59   D(8,10,12,15)        -175.1155         estimate D2E/DX2                !
 ! D60   D(8,10,12,16)           5.4846         estimate D2E/DX2                !
 ! D61   D(11,10,12,15)         -1.0301         estimate D2E/DX2                !
 ! D62   D(11,10,12,16)        179.57           estimate D2E/DX2                !
 ! D63   D(10,11,13,17)         -0.7311         estimate D2E/DX2                !
 ! D64   D(10,11,13,18)        178.7007         estimate D2E/DX2                !
 ! D65   D(14,11,13,17)       -178.964          estimate D2E/DX2                !
 ! D66   D(14,11,13,18)          0.4677         estimate D2E/DX2                !
 ! D67   D(10,12,15,17)          0.0838         estimate D2E/DX2                !
 ! D68   D(10,12,15,19)       -179.6452         estimate D2E/DX2                !
 ! D69   D(16,12,15,17)        179.4869         estimate D2E/DX2                !
 ! D70   D(16,12,15,19)         -0.2421         estimate D2E/DX2                !
 ! D71   D(11,13,17,15)         -0.248          estimate D2E/DX2                !
 ! D72   D(11,13,17,20)        179.7096         estimate D2E/DX2                !
 ! D73   D(18,13,17,15)       -179.6774         estimate D2E/DX2                !
 ! D74   D(18,13,17,20)          0.2803         estimate D2E/DX2                !
 ! D75   D(12,15,17,13)          0.5659         estimate D2E/DX2                !
 ! D76   D(12,15,17,20)       -179.3918         estimate D2E/DX2                !
 ! D77   D(19,15,17,13)       -179.7059         estimate D2E/DX2                !
 ! D78   D(19,15,17,20)          0.3364         estimate D2E/DX2                !
 ! D79   D(1,21,23,24)        -118.789          estimate D2E/DX2                !
 ! D80   D(1,21,23,25)          59.8137         estimate D2E/DX2                !
 ! D81   D(22,21,23,24)         -0.1784         estimate D2E/DX2                !
 ! D82   D(22,21,23,25)        178.4242         estimate D2E/DX2                !
 ! D83   D(34,21,23,24)        115.075          estimate D2E/DX2                !
 ! D84   D(34,21,23,25)        -66.3223         estimate D2E/DX2                !
 ! D85   D(1,21,34,35)          55.1386         estimate D2E/DX2                !
 ! D86   D(1,21,34,36)         -59.5268         estimate D2E/DX2                !
 ! D87   D(1,21,34,41)         177.2957         estimate D2E/DX2                !
 ! D88   D(22,21,34,35)        -61.9985         estimate D2E/DX2                !
 ! D89   D(22,21,34,36)       -176.6639         estimate D2E/DX2                !
 ! D90   D(22,21,34,41)         60.1586         estimate D2E/DX2                !
 ! D91   D(23,21,34,35)       -176.1907         estimate D2E/DX2                !
 ! D92   D(23,21,34,36)         69.1439         estimate D2E/DX2                !
 ! D93   D(23,21,34,41)        -54.0336         estimate D2E/DX2                !
 ! D94   D(21,23,24,26)        177.2596         estimate D2E/DX2                !
 ! D95   D(21,23,24,27)         -0.9831         estimate D2E/DX2                !
 ! D96   D(25,23,24,26)         -1.3523         estimate D2E/DX2                !
 ! D97   D(25,23,24,27)       -179.5951         estimate D2E/DX2                !
 ! D98   D(21,23,25,28)       -177.6423         estimate D2E/DX2                !
 ! D99   D(21,23,25,29)          1.7562         estimate D2E/DX2                !
 ! D100  D(24,23,25,28)          1.0304         estimate D2E/DX2                !
 ! D101  D(24,23,25,29)       -179.5711         estimate D2E/DX2                !
 ! D102  D(23,24,26,30)          0.7301         estimate D2E/DX2                !
 ! D103  D(23,24,26,31)       -178.7001         estimate D2E/DX2                !
 ! D104  D(27,24,26,30)        178.9631         estimate D2E/DX2                !
 ! D105  D(27,24,26,31)         -0.467          estimate D2E/DX2                !
 ! D106  D(23,25,28,30)         -0.0849         estimate D2E/DX2                !
 ! D107  D(23,25,28,32)        179.6451         estimate D2E/DX2                !
 ! D108  D(29,25,28,30)       -179.4866         estimate D2E/DX2                !
 ! D109  D(29,25,28,32)          0.2433         estimate D2E/DX2                !
 ! D110  D(24,26,30,28)          0.2483         estimate D2E/DX2                !
 ! D111  D(24,26,30,33)       -179.7095         estimate D2E/DX2                !
 ! D112  D(31,26,30,28)        179.676          estimate D2E/DX2                !
 ! D113  D(31,26,30,33)         -0.2817         estimate D2E/DX2                !
 ! D114  D(25,28,30,26)         -0.5651         estimate D2E/DX2                !
 ! D115  D(25,28,30,33)        179.3927         estimate D2E/DX2                !
 ! D116  D(32,28,30,26)        179.7057         estimate D2E/DX2                !
 ! D117  D(32,28,30,33)         -0.3365         estimate D2E/DX2                !
 ! D118  D(21,34,41,42)         62.3319         estimate D2E/DX2                !
 ! D119  D(21,34,41,43)       -177.2427         estimate D2E/DX2                !
 ! D120  D(21,34,41,44)        -57.3105         estimate D2E/DX2                !
 ! D121  D(35,34,41,42)       -176.3207         estimate D2E/DX2                !
 ! D122  D(35,34,41,43)        -55.8953         estimate D2E/DX2                !
 ! D123  D(35,34,41,44)         64.0369         estimate D2E/DX2                !
 ! D124  D(36,34,41,42)        -60.4068         estimate D2E/DX2                !
 ! D125  D(36,34,41,43)         60.0186         estimate D2E/DX2                !
 ! D126  D(36,34,41,44)        179.9508         estimate D2E/DX2                !
 ! D127  D(8,38,45,46)         177.2477         estimate D2E/DX2                !
 ! D128  D(8,38,45,47)         -62.326          estimate D2E/DX2                !
 ! D129  D(8,38,45,48)          57.3154         estimate D2E/DX2                !
 ! D130  D(39,38,45,46)         55.8996         estimate D2E/DX2                !
 ! D131  D(39,38,45,47)        176.3258         estimate D2E/DX2                !
 ! D132  D(39,38,45,48)        -64.0327         estimate D2E/DX2                !
 ! D133  D(40,38,45,46)        -60.0142         estimate D2E/DX2                !
 ! D134  D(40,38,45,47)         60.412          estimate D2E/DX2                !
 ! D135  D(40,38,45,48)       -179.9465         estimate D2E/DX2                !
 --------------------------------------------------------------------------------
 Trust Radius=3.00D-01 FncErr=1.00D-07 GrdErr=1.00D-06 EigMax=2.50D+02 EigMin=1.00D-04
 Number of steps in this run=    287 maximum allowed number of steps=    300.
 GradGradGradGradGradGradGradGradGradGradGradGradGradGradGradGradGradGrad

 Leave Link  103 at Fri Sep 13 20:00:35 2024, MaxMem=   536870912 cpu:               0.5 elap:               0.1
 (Enter /home/jsn/save/G16-linux/g16/l202.exe)
                          Input orientation:                          
 ---------------------------------------------------------------------
 Center     Atomic      Atomic             Coordinates (Angstroms)
 Number     Number       Type             X           Y           Z
 ---------------------------------------------------------------------
      1          6           0        1.163308    2.176145   -0.442987
      2          1           0        1.131589    1.826933   -1.488827
      3          6           0       -0.095317    1.686976    0.300872
      4          1           0       -0.095322    2.179455    1.289116
      5          6           0       -1.353935    2.176159   -0.442980
      6          1           0       -1.297361    3.276602   -0.495065
      7          1           0       -1.322234    1.826968   -1.488828
      8          6           0       -2.704404    1.780295    0.189962
      9          1           0       -2.589283    1.828681    1.287132
     10          6           0       -3.026592    0.204320   -0.137259
     11          6           0       -3.232965   -0.755154    0.861436
     12          6           0       -3.230226   -0.177120   -1.472779
     13          6           0       -3.602946   -2.063300    0.540852
     14          1           0       -3.072976   -0.478634    1.905770
     15          6           0       -3.606520   -1.480993   -1.800767
     16          1           0       -3.083576    0.552606   -2.273326
     17          6           0       -3.789116   -2.433465   -0.793239
     18          1           0       -3.737160   -2.798777    1.337843
     19          1           0       -3.753782   -1.756592   -2.848294
     20          1           0       -4.073967   -3.457391   -1.047405
     21          6           0        2.513784    1.780279    0.189946
     22          1           0        2.398678    1.828647    1.287116
     23          6           0        3.026589    0.204312   -0.137311
     24          6           0        3.233126   -0.755137    0.861374
     25          6           0        3.230034   -0.177154   -1.472852
     26          6           0        3.603098   -2.063281    0.540766
     27          1           0        3.073277   -0.478603    1.905726
     28          6           0        3.606296   -1.481027   -1.800866
     29          1           0        3.083237    0.552547   -2.273396
     30          6           0        3.789073   -2.433472   -0.793345
     31          1           0        3.737432   -2.798738    1.337755
     32          1           0        3.753407   -1.756644   -2.848410
     33          1           0        4.073914   -3.457396   -1.047535
     34          6           0        3.611944    2.794472   -0.195001
     35          1           0        3.266443    3.801287    0.097223
     36          1           0        3.712023    2.816401   -1.294826
     37          1           0        1.106753    3.276587   -0.495102
     38          6           0       -3.802569    2.794473   -0.194992
     39          1           0       -3.457120    3.801288    0.097294
     40          1           0       -3.902592    2.816458   -1.294822
     41          6           0        4.970392    2.515044    0.442928
     42          1           0        5.374791    1.543608    0.119293
     43          1           0        5.703324    3.292657    0.175924
     44          1           0        4.893379    2.489664    1.542966
     45          6           0       -5.161028    2.514939    0.442844
     46          1           0       -5.894017    3.292483    0.175786
     47          1           0       -5.565321    1.543458    0.119209
     48          1           0       -5.084091    2.489576    1.542890
     49          8           0       -0.050805    0.559099   -0.246585
     50          1           0        0.442259   -0.245524   -0.144359
 ---------------------------------------------------------------------
                    Distance matrix (angstroms):
                    1          2          3          4          5
     1  C    0.000000
     2  H    1.103058   0.000000
     3  C    1.541671   2.174375   0.000000
     4  H    2.141107   3.057213   1.104157   0.000000
     5  C    2.517243   2.719115   1.541666   2.141092   0.000000
     6  H    2.696036   2.998150   2.146005   2.414939   1.103127
     7  H    2.719122   2.453823   2.174385   3.057210   1.103058
     8  C    3.939101   4.187523   2.613110   2.859157   1.543078
     9  H    4.146804   4.642288   2.685639   2.518509   2.154092
    10  C    4.640778   4.663698   3.314001   3.811568   2.603727
    11  C    5.442540   5.589297   4.015353   4.317365   3.718178
    12  C    5.089348   4.800199   4.055656   4.796784   3.181018
    13  C    6.454301   6.455178   5.140585   5.555564   4.898876
    14  H    5.523641   5.875142   4.016468   4.038827   3.939499
    15  C    6.161938   5.786999   5.175081   5.939256   4.504718
    16  H    4.901229   4.472914   4.104020   4.926185   2.996289
    17  C    6.774783   6.545851   5.640856   6.265728   5.225076
    18  H    7.206649   7.286423   5.870290   6.168318   5.796643
    19  H    6.740155   6.209400   5.929568   6.781958   5.197243
    20  H    7.715640   7.430797   6.641688   7.284434   6.284965
    21  C    1.543081   2.175067   2.613124   2.859187   3.939107
    22  H    2.154101   3.051455   2.685658   2.518552   4.146818
    23  C    2.730088   2.837343   3.483761   3.960077   4.813585
    24  C    3.818104   4.075167   4.166126   4.457955   5.597764
    25  C    3.296967   2.901739   4.204645   4.923420   5.254664
    26  C    4.989296   5.036007   5.272594   5.677953   6.596422
    27  H    4.026427   4.539673   4.159961   4.181566   5.671365
    28  C    4.602926   4.142963   5.306174   6.053850   6.310527
    29  H    3.110080   2.459378   4.244643   5.043963   5.067054
    30  C    5.316574   5.069217   5.767485   6.379989   6.915344
    31  H    5.877637   6.014716   5.990552   6.282895   7.337754
    32  H    5.287864   4.643751   6.048899   6.886560   6.880260
    33  H    6.369763   6.064334   6.757607   7.390301   7.846271
    34  C    2.537645   2.960115   3.900798   4.040380   5.010365
    35  H    2.712211   3.312285   3.976583   3.918215   4.927550
    36  H    2.762518   2.770437   4.279917   4.645248   5.176822
    37  H    1.103126   1.757727   2.146022   2.414978   2.696042
    38  C    5.010366   5.191922   3.900788   4.040359   2.537640
    39  H    4.927611   5.241193   3.976616   3.918223   2.712255
    40  H    5.176772   5.134177   4.279873   4.645192   2.762475
    41  C    3.923466   4.352193   5.134908   5.146855   6.395060
    42  H    4.295678   4.546547   5.474998   5.629824   6.781742
    43  H    4.716078   5.081388   6.018144   6.008553   7.171786
    44  H    4.237421   4.876684   5.203287   5.004778   6.562865
    45  C    6.395053   6.618288   5.134891   5.146854   3.923444
    46  H    7.171815   7.367355   6.018158   6.008594   4.716078
    47  H    6.781652   6.893094   5.474901   5.629748   4.295595
    48  H    6.562922   6.947308   5.203330   5.004837   4.237449
    49  O    2.031620   2.132750   1.254510   2.232915   2.086049
    50  H    2.544321   2.564731   2.054696   2.867816   3.029857
                    6          7          8          9         10
     6  H    0.000000
     7  H    1.757732   0.000000
     8  C    2.165171   2.175065   0.000000
     9  H    2.634723   3.051454   1.104254   0.000000
    10  C    3.543611   2.713772   1.641516   2.204241   0.000000
    11  C    4.673512   3.980199   2.675585   2.696617   1.400204
    12  C    4.076774   2.767139   2.621578   3.471477   1.403772
    13  C    5.907910   4.945243   3.962792   4.090472   2.436005
    14  H    4.797771   4.461411   2.860524   2.437288   2.154657
    15  C    5.447181   4.032105   3.925916   4.639379   2.438002
    16  H    3.711190   2.311225   2.778269   3.814388   2.165025
    17  C    6.237196   4.971985   4.460836   4.892181   2.823059
    18  H    6.798705   5.934597   4.832402   4.767972   3.420442
    19  H    6.074926   4.538995   4.779306   5.595712   3.423988
    20  H    7.304880   5.974222   5.553389   5.966314   3.915800
    21  C    4.151271   4.187541   5.218188   5.219909   5.769443
    22  H    4.351258   4.642311   5.219917   4.987961   5.839592
    23  C    5.316342   4.834446   5.952740   6.017112   6.053181
    24  C    6.214512   5.739514   6.491030   6.384186   6.411076
    25  C    5.777699   4.973922   6.466383   6.745764   6.408955
    26  C    7.321324   6.596376   7.394641   7.351871   7.039497
    27  H    6.242422   6.013249   6.436463   6.145796   6.469047
    28  C    6.956005   5.943955   7.377300   7.673011   7.042953
    29  H    5.456425   4.652727   6.408767   6.817871   6.481848
    30  C    7.652825   6.690329   7.803074   7.948444   7.337689
    31  H    8.100501   7.415318   7.986377   7.838552   7.546260
    32  H    7.508798   6.360257   7.965235   8.377767   7.560695
    33  H    8.631486   7.565557   8.655079   8.819947   8.040768
    34  C    4.942040   5.191933   6.408822   6.448619   7.126176
    35  H    4.631890   5.241131   6.304286   6.292582   7.252271
    36  H    5.093656   5.134234   6.666982   6.881029   7.319280
    37  H    2.404114   2.998144   4.151279   4.351261   5.162501
    38  C    2.568766   2.960091   1.543604   2.145113   2.704508
    39  H    2.300162   3.312320   2.158606   2.461714   3.630227
    40  H    2.763797   2.770375   2.171145   3.060551   2.988409
    41  C    6.383144   6.618328   7.714035   7.637569   8.344328
    42  H    6.920861   6.893221   8.082970   8.054290   8.511330
    43  H    7.032786   7.367368   8.542677   8.493841   9.265384
    44  H    6.564915   6.947286   7.749847   7.516155   8.412603
    45  C    4.048176   4.352126   2.576558   2.792426   3.198640
    46  H    4.645378   5.081326   3.529950   3.781412   4.225739
    47  H    4.647215   4.546421   2.871575   3.209704   2.881703
    48  H    4.371727   4.876672   2.827791   2.593504   3.504083
    49  O    3.000077   2.183390   2.953554   3.226143   2.998855
    50  H    3.943937   3.035828   3.757286   3.942301   3.497905
                   11         12         13         14         15
    11  C    0.000000
    12  C    2.404723   0.000000
    13  C    1.396748   2.784117   0.000000
    14  H    1.092105   3.395619   2.157553   0.000000
    15  C    2.784549   1.396158   2.412939   3.876572   0.000000
    16  H    3.399895   1.093106   3.877152   4.304464   2.152280
    17  C    2.421566   2.421823   1.396954   3.408646   1.398448
    18  H    2.158141   3.876811   1.092765   2.479263   3.406537
    19  H    3.877657   2.158908   3.406337   4.969688   1.093139
    20  H    3.413655   3.413652   2.165158   4.312333   2.166151
    21  C    6.316996   6.292036   7.232608   6.265670   7.215050
    22  H    6.210687   6.582149   7.191916   5.970366   7.520049
    23  C    6.410935   6.409111   7.039368   6.468793   7.043115
    24  C    6.466091   6.896180   6.967489   6.397979   7.375271
    25  C    6.895893   6.460260   7.369000   7.157787   6.967496
    26  C    6.967480   7.369280   7.206044   6.996021   7.602659
    27  H    6.398102   7.158166   6.996149   6.146253   7.704711
    28  C    7.374974   6.967485   7.602359   7.704325   7.212816
    29  H    7.171587   6.405717   7.711530   7.511839   7.007961
    30  C    7.407028   7.404277   7.520575   7.628521   7.524421
    31  H    7.279392   7.957402   7.420045   7.217145   8.094467
    32  H    7.973414   7.290980   8.105373   8.416356   7.439225
    33  H    8.021020   8.018198   7.962453   8.286922   7.966341
    34  C    7.782588   7.568247   8.728921   7.733991   8.541915
    35  H    7.974176   7.778132   9.043157   7.859821   8.873695
    36  H    8.101748   7.562252   8.982759   8.193734   8.502037
    37  H    6.076864   5.629683   7.195058   6.110319   6.823069
    38  C    3.747044   3.284917   4.917242   3.957112   4.571275
    39  H    4.625507   4.283029   5.883145   4.662175   5.614931
    40  H    4.225430   3.073313   5.222214   4.667942   4.337248
    41  C    8.841064   8.841256   9.719719   8.706192   9.724500
    42  H    8.940276   8.918627   9.684382   8.868243   9.669477
    43  H    9.834224   9.724499  10.743654   9.707648  10.647452
    44  H    8.776719   9.066389   9.691298   8.509126   9.959666
    45  C    3.819182   3.826851   4.837096   3.932123   4.839190
    46  H    4.892308   4.674580   5.836667   5.017214   5.650263
    47  H    3.357737   3.308698   4.127638   3.673205   4.082954
    48  H    3.797278   4.431968   4.891477   3.603683   5.397099
    49  O    3.616782   3.486300   4.484946   3.852666   4.384127
    50  H    3.844297   3.905960   4.487483   4.076058   4.545622
                   16         17         18         19         20
    16  H    0.000000
    17  C    3.406621   0.000000
    18  H    4.969857   2.162791   0.000000
    19  H    2.472278   2.163945   4.313950   0.000000
    20  H    4.308577   1.092779   2.497322   2.497686   0.000000
    21  C    6.237414   7.645184   7.833244   7.811705   8.506626
    22  H    6.660341   7.796298   7.685319   8.234581   8.676826
    23  C    6.482128   7.337707   7.546053   7.560953   8.040786
    24  C    7.171977   7.407186   7.279311   7.973797   8.021173
    25  C    6.405855   7.404139   7.957054   7.291101   8.018067
    26  C    7.711912   7.520734   7.419951   8.105768   7.962610
    27  H    7.512304   7.628783   7.217184   8.416810   8.287174
    28  C    7.008086   7.524265   8.094091   7.439341   7.966188
    29  H    6.166813   7.637825   8.413693   7.239300   8.295072
    30  C    7.638083   7.578189   7.830683   7.847015   7.933496
    31  H    8.414129   7.830931   7.474592   8.644499   8.193947
    32  H    7.239316   7.846749   8.644035   7.507189   8.209990
    33  H    8.295321   7.933495   8.193698   8.210255   8.147881
    34  C    7.360393   9.081019   9.361804   9.055720   9.944124
    35  H    7.516393   9.457588   9.703115   9.426009  10.386539
    36  H    7.229273   9.169502   9.692858   8.891781  10.002166
    37  H    5.304810   7.527490   7.983309   7.382087   8.514185
    38  C    3.140444   5.262073   5.799854   5.268262   6.315542
    39  H    4.038974   6.306775   6.721476   6.297184   7.374229
    40  H    2.598708   5.275050   6.203962   4.831998   6.281064
    41  C    8.723279  10.136312  10.240069  10.256229  10.940361
    42  H    8.845942  10.031302  10.167046  10.150307  10.754078
    43  H    9.524511  11.128080  11.295059  11.139015  11.943831
    44  H    9.052518  10.250891  10.124025  10.587127  11.067555
    45  C    3.942606   5.281737   5.573508   5.572962   6.250701
    46  H    4.626408   6.177062   6.565505   6.262493   7.097153
    47  H    3.586791   4.450099   4.866440   4.793545   5.347300
    48  H    4.724132   5.600963   5.461039   6.251573   6.564784
    49  O    3.647660   4.819672   5.232108   5.083636   5.741023
    50  H    4.195357   4.807563   5.116988   5.215491   5.614969
                   21         22         23         24         25
    21  C    0.000000
    22  H    1.104251   0.000000
    23  C    1.689301   2.249829   0.000000
    24  C    2.719669   2.748363   1.400204   0.000000
    25  C    2.666356   3.511668   1.403772   2.404721   0.000000
    26  C    4.010315   4.141831   2.436007   1.396750   2.784117
    27  H    2.891276   2.482169   2.154658   1.092105   3.395620
    28  C    3.974045   4.684860   2.438000   2.784546   1.396156
    29  H    2.810633   3.843735   2.165026   3.399895   1.093107
    30  C    4.510978   4.942385   2.823060   2.421566   2.421823
    31  H    4.876697   4.817418   3.420442   2.158140   3.876811
    32  H    4.824738   5.638455   3.423985   3.877655   2.158904
    33  H    5.603446   6.016582   3.915802   3.413658   3.413651
    34  C    1.543608   2.145111   2.656105   3.722788   3.257195
    35  H    2.158603   2.461741   3.612584   4.620177   4.277201
    36  H    2.171146   3.060549   2.938140   4.199336   3.037330
    37  H    2.165171   2.634749   3.640420   4.755658   4.170449
    38  C    6.408828   6.448638   7.304085   7.950889   7.740865
    39  H    6.304344   6.292643   7.418339   8.130450   7.937971
    40  H    6.666940   6.881001   7.495111   8.265830   7.737426
    41  C    2.576587   2.792402   3.074822   3.726563   3.734567
    42  H    2.871649   3.209721   2.715439   3.228256   3.177409
    43  H    3.529964   3.781370   4.098890   4.791279   4.568940
    44  H    2.827784   2.593441   3.395743   3.708064   4.355892
    45  C    7.714041   7.637601   8.527171   9.018336   9.018158
    46  H    8.542721   8.493919   9.445213  10.007897   9.899732
    47  H    8.082885   8.054230   8.699427   9.123980   9.102386
    48  H    7.749920   7.516254   8.592359   8.953699   9.237469
    49  O    2.873840   3.156574   3.099705   3.706615   3.579065
    50  H    2.916651   3.190436   2.623197   3.010007   3.088893
                   26         27         28         29         30
    26  C    0.000000
    27  H    2.157552   0.000000
    28  C    2.412938   3.876569   0.000000
    29  H    3.877154   4.304466   2.152278   0.000000
    30  C    1.396954   3.408645   1.398448   3.406621   0.000000
    31  H    1.092764   2.479258   3.406538   4.969859   2.162793
    32  H    3.406337   4.969686   1.093140   2.472273   2.163946
    33  H    2.165162   4.312335   2.166151   4.308575   1.092780
    34  C    4.913165   3.926351   4.567135   3.102497   5.265053
    35  H    5.890944   4.650317   5.623263   4.025880   6.319689
    36  H    5.214648   4.637734   4.328411   2.545193   5.274332
    37  H    5.984893   4.871616   5.530608   3.806470   6.315739
    38  C    8.887239   7.899576   8.703448   7.533945   9.237016
    39  H    9.188934   8.014610   9.022068   7.677940   9.600666
    40  H    9.138742   8.352465   8.666479   7.408421   9.326036
    41  C    4.779134   3.834155   4.781627   3.845928   5.235618
    42  H    4.040567   3.546497   3.995373   3.458090   4.377736
    43  H    5.764558   4.912409   5.576135   4.513560   6.114932
    44  H    4.837203   3.500710   5.348288   4.646898   5.560136
    45  C    9.888356   8.882854   9.892823   8.899261  10.301419
    46  H   10.909290   9.880594  10.814319   9.700352  11.291059
    47  H    9.861348   9.050179   9.846459   9.027958  10.205558
    48  H    9.859007   8.688175  10.122708   9.220703  10.412850
    49  O    4.565940   3.933085   4.466799   3.732322   4.898887
    50  H    3.710059   3.343566   3.779102   3.484893   4.050860
                   31         32         33         34         35
    31  H    0.000000
    32  H    4.313953   0.000000
    33  H    2.497330   2.497686   0.000000
    34  C    5.800783   5.270033   6.326617   0.000000
    35  H    6.732093   6.309079   7.392628   1.103831   0.000000
    36  H    6.201686   4.829915   6.289089   1.104587   1.762482
    37  H    6.869455   6.154368   7.379414   2.568750   2.300091
    38  C    9.512357   9.211192  10.092159   7.414513   7.146327
    39  H    9.841781   9.568672  10.522148   7.146382   6.723563
    40  H    9.840267   9.052139  10.151209   7.594626   7.369039
    41  C    5.527855   5.528225   6.220546   1.526569   2.162724
    42  H    4.798079   4.725231   5.297528   2.184278   3.089131
    43  H    6.505357   6.200340   7.050889   2.181661   2.490640
    44  H    5.417150   6.214085   6.538328   2.180714   2.541151
    45  C   10.402818  10.418538  11.098386   8.800569   8.532081
    46  H   11.455040  11.300984  12.100290   9.526216   9.174916
    47  H   10.338314  10.321634  10.921753   9.267468   9.115829
    48  H   10.287255  10.743150  11.222559   8.873232   8.575661
    49  O    5.304332   5.157925   5.812664   4.291303   4.651249
    50  H    4.424221   4.534212   4.931609   4.392157   4.940755
                   36         37         38         39         40
    36  H    0.000000
    37  H    2.763831   0.000000
    38  C    7.594683   4.942059   0.000000
    39  H    7.369166   4.631974   1.103831   0.000000
    40  H    7.614615   5.093605   1.104588   1.762476   0.000000
    41  C    2.166587   4.048154   8.800561   8.532107   9.046572
    42  H    2.526763   4.647241   9.267544   9.115934   9.470465
    43  H    2.520953   4.645320   9.526162   9.174891   9.729516
    44  H    3.091185   4.371671   8.873157   8.575614   9.248186
    45  C    9.046624   6.383175   1.526560   2.162730   2.166577
    46  H    9.729612   7.032860   2.181661   2.490685   2.520925
    47  H    9.470427   6.920815   2.184275   3.089140   2.526793
    48  H    9.248301   6.565009   2.180710   2.541136   3.091181
    49  O    4.511440   2.964193   4.367527   4.715190   4.585928
    50  H    4.624966   3.601366   5.221370   5.624966   5.438476
                   41         42         43         44         45
    41  C    0.000000
    42  H    1.100893   0.000000
    43  H    1.101437   1.780537   0.000000
    44  H    1.103023   1.775845   1.780341   0.000000
    45  C   10.131420  10.585445  10.895423  10.114445   0.000000
    46  H   10.895465  11.403850  11.597341  10.903284   1.101439
    47  H   10.585368  10.940112  11.403739  10.597490   1.100894
    48  H   10.114504  10.597627  10.903296   9.977470   1.103025
    49  O    5.432639   5.526320   6.384422   5.601297   5.514980
    50  H    5.335694   5.253606   6.348237   5.490063   6.273897
                   46         47         48         49         50
    46  H    0.000000
    47  H    1.780542   0.000000
    48  H    1.780341   1.775835   0.000000
    49  O    6.464744   5.613613   5.680047   0.000000
    50  H    7.264185   6.273830   6.392818   0.949200   0.000000
 Stoichiometry    C21H28O
 Framework group  C1[X(C21H28O)]
 Deg. of freedom   144
 Full point group                 C1      NOp   1
 Largest Abelian subgroup         C1      NOp   1
 Largest concise Abelian subgroup C1      NOp   1
                         Standard orientation:                         
 ---------------------------------------------------------------------
 Center     Atomic      Atomic             Coordinates (Angstroms)
 Number     Number       Type             X           Y           Z
 ---------------------------------------------------------------------
      1          6           0        1.186468   -1.692807    0.441505
      2          1           0        1.160122   -1.201595    1.428800
      3          6           0       -0.067932   -1.297826   -0.362996
      4          1           0       -0.074768   -1.922578   -1.273381
      5          6           0       -1.330625   -1.665348    0.441533
      6          1           0       -1.285868   -2.748484    0.645746
      7          1           0       -1.293556   -1.174848    1.428839
      8          6           0       -2.677702   -1.346379   -0.240180
      9          1           0       -2.564787   -1.547720   -1.320035
     10          6           0       -2.982340    0.263170   -0.134706
     11          6           0       -3.179857    1.077054   -1.256825
     12          6           0       -3.179800    0.828349    1.135002
     13          6           0       -3.535189    2.420980   -1.120776
     14          1           0       -3.024460    0.656636   -2.252713
     15          6           0       -3.541480    2.169139    1.278977
     16          1           0       -3.039823    0.215149    2.029023
     17          6           0       -3.715310    2.974605    0.149081
     18          1           0       -3.662664    3.040233   -2.012073
     19          1           0       -3.684155    2.588949    2.278155
     20          1           0       -3.988691    4.026934    0.258774
     21          6           0        2.540175   -1.403314   -0.240236
     22          1           0        2.422878   -1.602124   -1.320090
     23          6           0        3.070481    0.197118   -0.134736
     24          6           0        3.285849    1.006473   -1.256847
     25          6           0        3.280075    0.757884    1.134984
     26          6           0        3.670426    2.342324   -1.120784
     27          1           0        3.121426    0.589529   -2.252747
     28          6           0        3.670907    2.090464    1.278974
     29          1           0        3.126624    0.147910    2.029002
     30          6           0        3.862428    2.891916    0.149084
     31          1           0        3.811483    2.958626   -2.012079
     32          1           0        3.822587    2.507081    2.278163
     33          1           0        4.158705    3.938028    0.258794
     34          6           0        3.627897   -2.366240    0.281646
     35          1           0        3.271090   -3.400023    0.131897
     36          1           0        3.729412   -2.236511    1.373880
     37          1           0        1.118103   -2.774703    0.645749
     38          6           0       -3.786174   -2.285318    0.281735
     39          1           0       -3.452073   -3.326651    0.131916
     40          1           0       -3.884750   -2.153460    1.373985
     41          6           0        4.988310   -2.192832   -0.388892
     42          1           0        5.403677   -1.190371   -0.203130
     43          1           0        5.713202   -2.933851   -0.016623
     44          1           0        4.909896   -2.319426   -1.481817
     45          6           0       -5.142506   -2.082139   -0.388689
     46          1           0       -5.883446   -2.807083   -0.016357
     47          1           0       -5.535781   -1.070807   -0.202922
     48          1           0       -5.066979   -2.210430   -1.481621
     49          8           0       -0.010397   -0.105475    0.022732
     50          1           0        0.491177    0.671764   -0.190114
 ---------------------------------------------------------------------
 Rotational constants (GHZ):           0.4115324           0.1476537           0.1193493
 Leave Link  202 at Fri Sep 13 20:00:35 2024, MaxMem=   536870912 cpu:               0.0 elap:               0.0
 (Enter /home/jsn/save/G16-linux/g16/l301.exe)
 Standard basis: def2SVP (5D, 7F)
 Ernie: Thresh=  0.10000D-02 Tol=  0.10000D-05 Strict=F.
 There are   470 symmetry adapted cartesian basis functions of A   symmetry.
 There are   448 symmetry adapted basis functions of A   symmetry.
   448 basis functions,   746 primitive gaussians,   470 cartesian basis functions
    81 alpha electrons       81 beta electrons
       nuclear repulsion energy      1749.9994146952 Hartrees.
 IExCor=  402 DFT=T Ex+Corr=B3LYP ExCW=0 ScaHFX=  0.200000
 ScaDFX=  0.800000  0.720000  1.000000  0.810000 ScalE2=  1.000000  1.000000
 IRadAn=      5 IRanWt=     -1 IRanGd=            0 ICorTp=0 IEmpDi=141
 NAtoms=   50 NActive=   50 NUniq=   50 SFac= 1.00D+00 NAtFMM=   60 NAOKFM=F Big=F
 Integral buffers will be    131072 words long.
 Raffenetti 2 integral format.
 Two-electron integral symmetry is turned on.
 R6Disp:  Grimme-D3(BJ) Dispersion energy=       -0.1001245795 Hartrees.
 Nuclear repulsion after empirical dispersion term =     1749.8992901157 Hartrees.
 ------------------------------------------------------------------------------
 Polarizable Continuum Model (PCM)
 =================================
 Model                : PCM.
 Atomic radii         : UFF (Universal Force Field).
 Polarization charges : Total charges.
 Charge compensation  : None.
 Solution method      : On-the-fly selection.
 Cavity type          : Scaled VdW (van der Waals Surface) (Alpha=1.100).
 Cavity algorithm     : GePol (No added spheres)
                        Default sphere list used, NSphG=   50.
                        Lebedev-Laikov grids with approx.  5.0 points / Ang**2.
                        Smoothing algorithm: York/Karplus (Gamma=1.0000).
                        Polarization charges: spherical gaussians, with
                                              point-specific exponents (IZeta= 3).
                        Self-potential: point-specific (ISelfS= 7).
                        Self-field    : sphere-specific E.n sum rule (ISelfD= 2).
 1st derivatives      : Analytical E(r).r(x)/FMM algorithm (CHGder, D1EAlg=3).
                        Cavity 1st derivative terms included.
 Solvent              : DiPhenylEther, Eps=   3.730000 Eps(inf)=   2.492294
 ------------------------------------------------------------------------------
 GePol: Number of generator spheres                  =      50
 GePol: Total number of spheres                      =      50
 GePol: Number of exposed spheres                    =      50 (100.00%)
 GePol: Number of points                             =    3363
 GePol: Average weight of points                     =       0.13
 GePol: Minimum weight of points                     =   0.13D-10
 GePol: Maximum weight of points                     =    0.20577
 GePol: Number of points with low weight             =     216
 GePol: Fraction of low-weight points (<1% of avg)   =       6.42%
 GePol: Cavity surface area                          =    436.894 Ang**2
 GePol: Cavity volume                                =    479.740 Ang**3
 Leave Link  301 at Fri Sep 13 20:00:36 2024, MaxMem=   536870912 cpu:               0.7 elap:               0.2
 (Enter /home/jsn/save/G16-linux/g16/l302.exe)
 NPDir=0 NMtPBC=     1 NCelOv=     1 NCel=       1 NClECP=     1 NCelD=      1
         NCelK=      1 NCelE2=     1 NClLst=     1 CellRange=     0.0.
 One-electron integrals computed using PRISM.
 One-electron integral symmetry used in STVInt
   1 Symmetry operations used in ECPInt.
 ECPInt:  NShTT=   23436 NPrTT=   82180 LenC2=   20539 LenP2D=   49778.
 LDataN:  DoStor=T MaxTD1= 4 Len=   56
 NBasis=   448 RedAO= T EigKep=  2.83D-04  NBF=   448
 NBsUse=   448 1.00D-06 EigRej= -1.00D+00 NBFU=   448
 Precomputing XC quadrature grid using
 IXCGrd= 4 IRadAn=           5 IRanWt=          -1 IRanGd=           0 AccXCQ= 0.00D+00.
 Generated NRdTot=       0 NPtTot=           0 NUsed=           0 NTot=          32
 NSgBfM=   468   468   468   468   468 MxSgAt=    50 MxSgA2=    50.
 Leave Link  302 at Fri Sep 13 20:00:38 2024, MaxMem=   536870912 cpu:               8.7 elap:               2.2
 (Enter /home/jsn/save/G16-linux/g16/l303.exe)
 DipDrv:  MaxL=1.
 Leave Link  303 at Fri Sep 13 20:00:38 2024, MaxMem=   536870912 cpu:               0.6 elap:               0.2
 (Enter /home/jsn/save/G16-linux/g16/l401.exe)
 ExpMin= 1.22D-01 ExpMax= 2.27D+03 ExpMxC= 3.41D+02 IAcc=3 IRadAn=         5 AccDes= 0.00D+00
 Harris functional with IExCor=  402 and IRadAn=       5 diagonalized for initial guess.
 HarFok:  IExCor=  402 AccDes= 0.00D+00 IRadAn=         5 IDoV= 1 UseB2=F ITyADJ=14
 ICtDFT=  3500011 ScaDFX=  1.000000  1.000000  1.000000  1.000000
 FoFCou: FMM=F IPFlag=           0 FMFlag=      100000 FMFlg1=           0
         NFxFlg=           0 DoJE=T BraDBF=F KetDBF=T FulRan=T
         wScrn=  0.000000 ICntrl=       500 IOpCl=  0 I1Cent=   200000004 NGrid=           0
         NMat0=    1 NMatS0=      1 NMatT0=    0 NMatD0=    1 NMtDS0=    0 NMtDT0=    0
 Petite list used in FoFCou.
 Harris En= -891.722961276956    
 JPrj=0 DoOrth=F DoCkMO=F.
 Leave Link  401 at Fri Sep 13 20:00:52 2024, MaxMem=   536870912 cpu:              55.3 elap:              13.8
 (Enter /home/jsn/save/G16-linux/g16/l502.exe)
 Integral symmetry usage will be decided dynamically.
 Closed shell SCF:
 Using DIIS extrapolation, IDIIS=  1040.
 NGot=   536870912 LenX=   536421086 LenY=   536199716
 Requested convergence on RMS density matrix=1.00D-08 within 128 cycles.
 Requested convergence on MAX density matrix=1.00D-06.
 Requested convergence on             energy=1.00D-06.
 No special actions if energy rises.
 Fock matrices will be formed incrementally for  20 cycles.

 Cycle   1  Pass 1  IDiag  1:
 FoFJK:  IHMeth= 1 ICntrl=       0 DoSepK=F KAlg= 0 I1Cent=           0 FoldK=F
 IRaf= 800000000 NMat=       1 IRICut=       1 DoRegI=T DoRafI=F ISym2E= 0 IDoP0=0 IntGTp=1.
 FoFCou: FMM=F IPFlag=           0 FMFlag=      100000 FMFlg1=           0
         NFxFlg=           0 DoJE=F BraDBF=F KetDBF=F FulRan=T
         wScrn=  0.000000 ICntrl=         0 IOpCl=  0 I1Cent=           0 NGrid=           0
         NMat0=    1 NMatS0=      1 NMatT0=    0 NMatD0=    1 NMtDS0=    0 NMtDT0=    0
 Symmetry not used in FoFCou.
 Inv3:  Mode=1 IEnd=    33929307.
 Iteration    1 A*A^-1 deviation from unit magnitude is 3.89D-15 for   1869.
 Iteration    1 A*A^-1 deviation from orthogonality  is 1.89D-15 for   2413   1118.
 Iteration    1 A^-1*A deviation from unit magnitude is 3.77D-15 for   1869.
 Iteration    1 A^-1*A deviation from orthogonality  is 1.97D-15 for   2951   2415.
 E= -891.075438135443    
 DIIS: error= 3.01D-02 at cycle   1 NSaved=   1.
 NSaved= 1 IEnMin= 1 EnMin= -891.075438135443     IErMin= 1 ErrMin= 3.01D-02
 ErrMax= 3.01D-02  0.00D+00 EMaxC= 1.00D-01 BMatC= 5.20D-01 BMatP= 5.20D-01
 IDIUse=3 WtCom= 6.99D-01 WtEn= 3.01D-01
 Coeff-Com:  0.100D+01
 Coeff-En:   0.100D+01
 Coeff:      0.100D+01
 Gap=     0.176 Goal=   None    Shift=    0.000
 GapD=    0.176 DampG=1.000 DampE=0.500 DampFc=0.5000 IDamp=-1.
 Damping current iteration by 5.00D-01
 RMSDP=4.90D-03 MaxDP=1.60D-01              OVMax= 1.91D-01

 Cycle   2  Pass 1  IDiag  1:
 RMSU=  2.35D-03    CP:  9.57D-01
 E= -891.343077286340     Delta-E=       -0.267639150897 Rises=F Damp=T
 DIIS: error= 3.97D-03 at cycle   2 NSaved=   2.
 NSaved= 2 IEnMin= 2 EnMin= -891.343077286340     IErMin= 2 ErrMin= 3.97D-03
 ErrMax= 3.97D-03  0.00D+00 EMaxC= 1.00D-01 BMatC= 2.34D-02 BMatP= 5.20D-01
 IDIUse=3 WtCom= 9.60D-01 WtEn= 3.97D-02
 Coeff-Com:  0.715D-01 0.929D+00
 Coeff-En:   0.992D-01 0.901D+00
 Coeff:      0.726D-01 0.927D+00
 Gap=     0.235 Goal=   None    Shift=    0.000
 RMSDP=1.31D-03 MaxDP=5.25D-02 DE=-2.68D-01 OVMax= 1.23D-01

 Cycle   3  Pass 1  IDiag  1:
 RMSU=  1.23D-03    CP:  9.36D-01  8.70D-01
 E= -891.666863679773     Delta-E=       -0.323786393433 Rises=F Damp=F
 DIIS: error= 4.21D-03 at cycle   3 NSaved=   3.
 NSaved= 3 IEnMin= 3 EnMin= -891.666863679773     IErMin= 2 ErrMin= 3.97D-03
 ErrMax= 4.21D-03  0.00D+00 EMaxC= 1.00D-01 BMatC= 9.72D-03 BMatP= 2.34D-02
 IDIUse=3 WtCom= 9.58D-01 WtEn= 4.21D-02
 Coeff-Com: -0.460D-02 0.367D+00 0.637D+00
 Coeff-En:   0.000D+00 0.000D+00 0.100D+01
 Coeff:     -0.441D-02 0.352D+00 0.652D+00
 Gap=     0.207 Goal=   None    Shift=    0.000
 RMSDP=4.33D-04 MaxDP=2.61D-02 DE=-3.24D-01 OVMax= 2.92D-02

 Cycle   4  Pass 1  IDiag  1:
 RMSU=  3.41D-04    CP:  9.37D-01  9.38D-01  8.27D-01
 E= -891.672698493650     Delta-E=       -0.005834813878 Rises=F Damp=F
 DIIS: error= 1.84D-03 at cycle   4 NSaved=   4.
 NSaved= 4 IEnMin= 4 EnMin= -891.672698493650     IErMin= 4 ErrMin= 1.84D-03
 ErrMax= 1.84D-03  0.00D+00 EMaxC= 1.00D-01 BMatC= 2.63D-03 BMatP= 9.72D-03
 IDIUse=3 WtCom= 9.82D-01 WtEn= 1.84D-02
 Coeff-Com: -0.105D-01 0.957D-01 0.362D+00 0.553D+00
 Coeff-En:   0.000D+00 0.000D+00 0.202D+00 0.798D+00
 Coeff:     -0.103D-01 0.939D-01 0.359D+00 0.557D+00
 Gap=     0.208 Goal=   None    Shift=    0.000
 RMSDP=1.63D-04 MaxDP=9.38D-03 DE=-5.83D-03 OVMax= 1.19D-02

 Cycle   5  Pass 1  IDiag  1:
 RMSU=  9.29D-05    CP:  9.36D-01  9.24D-01  8.86D-01  6.94D-01
 E= -891.674819744416     Delta-E=       -0.002121250766 Rises=F Damp=F
 DIIS: error= 4.22D-04 at cycle   5 NSaved=   5.
 NSaved= 5 IEnMin= 5 EnMin= -891.674819744416     IErMin= 5 ErrMin= 4.22D-04
 ErrMax= 4.22D-04  0.00D+00 EMaxC= 1.00D-01 BMatC= 1.17D-04 BMatP= 2.63D-03
 IDIUse=3 WtCom= 9.96D-01 WtEn= 4.22D-03
 Coeff-Com: -0.448D-02 0.161D-01 0.110D+00 0.248D+00 0.630D+00
 Coeff-En:   0.000D+00 0.000D+00 0.000D+00 0.000D+00 0.100D+01
 Coeff:     -0.446D-02 0.161D-01 0.110D+00 0.247D+00 0.631D+00
 Gap=     0.207 Goal=   None    Shift=    0.000
 RMSDP=3.97D-05 MaxDP=3.10D-03 DE=-2.12D-03 OVMax= 5.69D-03

 Cycle   6  Pass 1  IDiag  1:
 RMSU=  3.26D-05    CP:  9.35D-01  9.27D-01  8.84D-01  7.20D-01  7.91D-01
 E= -891.674905613075     Delta-E=       -0.000085868658 Rises=F Damp=F
 DIIS: error= 2.57D-04 at cycle   6 NSaved=   6.
 NSaved= 6 IEnMin= 6 EnMin= -891.674905613075     IErMin= 6 ErrMin= 2.57D-04
 ErrMax= 2.57D-04  0.00D+00 EMaxC= 1.00D-01 BMatC= 3.51D-05 BMatP= 1.17D-04
 IDIUse=3 WtCom= 9.97D-01 WtEn= 2.57D-03
 Coeff-Com: -0.197D-02 0.159D-02 0.364D-01 0.107D+00 0.409D+00 0.448D+00
 Coeff-En:   0.000D+00 0.000D+00 0.000D+00 0.000D+00 0.251D+00 0.749D+00
 Coeff:     -0.196D-02 0.159D-02 0.363D-01 0.107D+00 0.409D+00 0.448D+00
 Gap=     0.207 Goal=   None    Shift=    0.000
 RMSDP=1.77D-05 MaxDP=1.10D-03 DE=-8.59D-05 OVMax= 2.33D-03

 Cycle   7  Pass 1  IDiag  1:
 RMSU=  5.66D-06    CP:  9.35D-01  9.27D-01  8.85D-01  7.17D-01  7.94D-01
                    CP:  4.93D-01
 E= -891.674944389271     Delta-E=       -0.000038776196 Rises=F Damp=F
 DIIS: error= 2.52D-05 at cycle   7 NSaved=   7.
 NSaved= 7 IEnMin= 7 EnMin= -891.674944389271     IErMin= 7 ErrMin= 2.52D-05
 ErrMax= 2.52D-05  0.00D+00 EMaxC= 1.00D-01 BMatC= 4.39D-07 BMatP= 3.51D-05
 IDIUse=1 WtCom= 1.00D+00 WtEn= 0.00D+00
 Coeff-Com: -0.595D-03 0.211D-05 0.966D-02 0.323D-01 0.137D+00 0.180D+00
 Coeff-Com:  0.642D+00
 Coeff:     -0.595D-03 0.211D-05 0.966D-02 0.323D-01 0.137D+00 0.180D+00
 Coeff:      0.642D+00
 Gap=     0.207 Goal=   None    Shift=    0.000
 RMSDP=2.34D-06 MaxDP=1.03D-04 DE=-3.88D-05 OVMax= 2.31D-04

 Cycle   8  Pass 1  IDiag  1:
 RMSU=  1.74D-06    CP:  9.35D-01  9.26D-01  8.85D-01  7.18D-01  7.93D-01
                    CP:  5.08D-01  7.48D-01
 E= -891.674944784123     Delta-E=       -0.000000394852 Rises=F Damp=F
 DIIS: error= 1.00D-05 at cycle   8 NSaved=   8.
 NSaved= 8 IEnMin= 8 EnMin= -891.674944784123     IErMin= 8 ErrMin= 1.00D-05
 ErrMax= 1.00D-05  0.00D+00 EMaxC= 1.00D-01 BMatC= 8.02D-08 BMatP= 4.39D-07
 IDIUse=1 WtCom= 1.00D+00 WtEn= 0.00D+00
 Coeff-Com: -0.889D-04-0.237D-03 0.808D-03 0.503D-02 0.265D-01 0.435D-01
 Coeff-Com:  0.333D+00 0.591D+00
 Coeff:     -0.889D-04-0.237D-03 0.808D-03 0.503D-02 0.265D-01 0.435D-01
 Coeff:      0.333D+00 0.591D+00
 Gap=     0.207 Goal=   None    Shift=    0.000
 RMSDP=8.18D-07 MaxDP=3.48D-05 DE=-3.95D-07 OVMax= 8.29D-05

 Cycle   9  Pass 1  IDiag  1:
 RMSU=  4.83D-07    CP:  9.35D-01  9.26D-01  8.85D-01  7.18D-01  7.94D-01
                    CP:  5.08D-01  7.97D-01  6.86D-01
 E= -891.674944865088     Delta-E=       -0.000000080965 Rises=F Damp=F
 DIIS: error= 2.43D-06 at cycle   9 NSaved=   9.
 NSaved= 9 IEnMin= 9 EnMin= -891.674944865088     IErMin= 9 ErrMin= 2.43D-06
 ErrMax= 2.43D-06  0.00D+00 EMaxC= 1.00D-01 BMatC= 3.96D-09 BMatP= 8.02D-08
 IDIUse=1 WtCom= 1.00D+00 WtEn= 0.00D+00
 Coeff-Com: -0.129D-04-0.110D-03-0.117D-03 0.765D-03 0.547D-02 0.112D-01
 Coeff-Com:  0.122D+00 0.275D+00 0.586D+00
 Coeff:     -0.129D-04-0.110D-03-0.117D-03 0.765D-03 0.547D-02 0.112D-01
 Coeff:      0.122D+00 0.275D+00 0.586D+00
 Gap=     0.207 Goal=   None    Shift=    0.000
 RMSDP=2.36D-07 MaxDP=1.16D-05 DE=-8.10D-08 OVMax= 2.84D-05

 Cycle  10  Pass 1  IDiag  1:
 RMSU=  1.77D-07    CP:  9.35D-01  9.26D-01  8.86D-01  7.18D-01  7.94D-01
                    CP:  5.08D-01  8.01D-01  7.20D-01  7.16D-01
 E= -891.674944868607     Delta-E=       -0.000000003519 Rises=F Damp=F
 DIIS: error= 1.30D-06 at cycle  10 NSaved=  10.
 NSaved=10 IEnMin=10 EnMin= -891.674944868607     IErMin=10 ErrMin= 1.30D-06
 ErrMax= 1.30D-06  0.00D+00 EMaxC= 1.00D-01 BMatC= 9.31D-10 BMatP= 3.96D-09
 IDIUse=1 WtCom= 1.00D+00 WtEn= 0.00D+00
 Coeff-Com:  0.552D-05-0.234D-04-0.208D-03-0.342D-03-0.981D-03-0.162D-03
 Coeff-Com:  0.208D-01 0.720D-01 0.351D+00 0.558D+00
 Coeff:      0.552D-05-0.234D-04-0.208D-03-0.342D-03-0.981D-03-0.162D-03
 Coeff:      0.208D-01 0.720D-01 0.351D+00 0.558D+00
 Gap=     0.207 Goal=   None    Shift=    0.000
 RMSDP=9.29D-08 MaxDP=3.93D-06 DE=-3.52D-09 OVMax= 1.02D-05

 Cycle  11  Pass 1  IDiag  1:
 RMSU=  4.51D-08    CP:  9.35D-01  9.26D-01  8.86D-01  7.18D-01  7.94D-01
                    CP:  5.08D-01  8.03D-01  7.27D-01  7.94D-01  6.21D-01
 E= -891.674944869657     Delta-E=       -0.000000001050 Rises=F Damp=F
 DIIS: error= 1.72D-07 at cycle  11 NSaved=  11.
 NSaved=11 IEnMin=11 EnMin= -891.674944869657     IErMin=11 ErrMin= 1.72D-07
 ErrMax= 1.72D-07  0.00D+00 EMaxC= 1.00D-01 BMatC= 3.27D-11 BMatP= 9.31D-10
 IDIUse=1 WtCom= 1.00D+00 WtEn= 0.00D+00
 Coeff-Com:  0.272D-05-0.267D-05-0.887D-04-0.194D-03-0.779D-03-0.768D-03
 Coeff-Com:  0.150D-02 0.138D-01 0.117D+00 0.249D+00 0.620D+00
 Coeff:      0.272D-05-0.267D-05-0.887D-04-0.194D-03-0.779D-03-0.768D-03
 Coeff:      0.150D-02 0.138D-01 0.117D+00 0.249D+00 0.620D+00
 Gap=     0.207 Goal=   None    Shift=    0.000
 RMSDP=2.03D-08 MaxDP=6.71D-07 DE=-1.05D-09 OVMax= 1.37D-06

 Cycle  12  Pass 1  IDiag  1:
 RMSU=  1.17D-08    CP:  9.35D-01  9.26D-01  8.86D-01  7.18D-01  7.94D-01
                    CP:  5.08D-01  8.03D-01  7.27D-01  8.01D-01  6.59D-01
                    CP:  7.24D-01
 E= -891.674944869689     Delta-E=       -0.000000000032 Rises=F Damp=F
 DIIS: error= 5.73D-08 at cycle  12 NSaved=  12.
 NSaved=12 IEnMin=12 EnMin= -891.674944869689     IErMin=12 ErrMin= 5.73D-08
 ErrMax= 5.73D-08  0.00D+00 EMaxC= 1.00D-01 BMatC= 3.34D-12 BMatP= 3.27D-11
 IDIUse=1 WtCom= 1.00D+00 WtEn= 0.00D+00
 Coeff-Com:  0.748D-06 0.611D-06-0.290D-04-0.678D-04-0.305D-03-0.347D-03
 Coeff-Com: -0.625D-03 0.172D-02 0.318D-01 0.826D-01 0.306D+00 0.579D+00
 Coeff:      0.748D-06 0.611D-06-0.290D-04-0.678D-04-0.305D-03-0.347D-03
 Coeff:     -0.625D-03 0.172D-02 0.318D-01 0.826D-01 0.306D+00 0.579D+00
 Gap=     0.207 Goal=   None    Shift=    0.000
 RMSDP=4.97D-09 MaxDP=2.83D-07 DE=-3.21D-11 OVMax= 4.55D-07

 Error on total polarization charges =  0.01255
 SCF Done:  E(RB3LYP) =  -891.674944870     A.U. after   12 cycles
            NFock= 12  Conv=0.50D-08     -V/T= 2.0116
 KE= 8.814438657510D+02 PE=-5.563835760328D+03 EE= 2.040817659592D+03
 Leave Link  502 at Fri Sep 13 20:10:22 2024, MaxMem=   536870912 cpu:            2277.9 elap:             569.8
 (Enter /home/jsn/save/G16-linux/g16/l601.exe)
 Copying SCF densities to generalized density rwf, IOpCl= 0 IROHF=0.

 **********************************************************************

            Population analysis using the SCF density.

 **********************************************************************

 Orbital symmetries:
       Occupied  (A) (A) (A) (A) (A) (A) (A) (A) (A) (A) (A) (A)
                 (A) (A) (A) (A) (A) (A) (A) (A) (A) (A) (A) (A)
                 (A) (A) (A) (A) (A) (A) (A) (A) (A) (A) (A) (A)
                 (A) (A) (A) (A) (A) (A) (A) (A) (A) (A) (A) (A)
                 (A) (A) (A) (A) (A) (A) (A) (A) (A) (A) (A) (A)
                 (A) (A) (A) (A) (A) (A) (A) (A) (A) (A) (A) (A)
                 (A) (A) (A) (A) (A) (A) (A) (A) (A)
       Virtual   (A) (A) (A) (A) (A) (A) (A) (A) (A) (A) (A) (A)
                 (A) (A) (A) (A) (A) (A) (A) (A) (A) (A) (A) (A)
[...]
 00000103,-0.00000099,-0.00000076,0.00000089,0.00000137,-0.00000075,0.0
 0000144,0.00000014,-0.00000499,0.00000645,-0.00000673,0.00000134,0.000
 00301,0.00000009,-0.00000037,-0.00000045,0.00000162,0.00000629,0.00000
 750,-0.00000160,-0.00285439,-0.00657909,-0.00148769,-0.00129820,0.0007
 0369,0.00108713,0.00006592,0.00029164,0.00015194,-0.00000153,-0.000003
 74,0.00000282,-0.00000100,0.00000190,-0.00000023,-0.00000327,-0.000000
 71,-0.00000090,0.00000037,-0.00000017,-0.00000035,-0.07880784,-0.25793
 323,-0.07708561,-0.00728217,-0.01649432,-0.00667980,0.08631818,0.27733
 437,-0.00000291,0.00000769,0.00000025,0.00000167,-0.00000024,-0.000000
 46,-0.00007250,-0.00007445,-0.00002499,0.00000504,0.00000069,0.0000062
 2,-0.00002159,0.00009077,-0.00003988,-0.00006984,-0.00005631,-0.000015
 25,0.00000697,0.00000701,-0.00001516,-0.00044322,-0.00039149,0.0001908
 3,0.00002331,-0.00003946,0.00000309,0.00056922,-0.00036048,0.00012750,
 0.00009884,-0.00030928,-0.00022065,0.00020531,0.00011098,-0.00000903,0
 .00019854,0.00030132,0.00013146,-0.00010546,0.00001581,-0.00005641,-0.
 00018197,-0.00029484,-0.00002776,0.00003372,0.00001662,-0.00004329,-0.
 00004352,0.00002519,-0.00017026,-0.00000720,0.00000272,-0.00000450,0.0
 0000909,-0.00001045,-0.00000425,-0.00000600,0.00000757,-0.00001307,-0.
 00000123,-0.00000226,-0.00000135,0.00000043,-0.00000021,0.00000085,0.0
 0000159,-0.00000049,0.00000120,0.00000236,0.00000014,-0.00000182,0.000
 00053,0.00000011,0.00000095,0.00000049,0.00000078,0.00000064,-0.000000
 43,-0.00000055,-0.00000018,-0.00000028,0.00000042,0.00000066,-0.000000
 05,0.00000042,0.00000001,0.,-0.00000001,-0.00000023,-0.00000055,0.0000
 0002,-0.00000035,0.00000020,-0.00000031,-0.00000023,-0.00000021,0.,0.0
 0000023,-0.00000001,-0.00000055,0.00000087,-0.00000014,0.00000048,-0.0
 0000035,0.,0.00000004,0.00000006,-0.00000064,-0.00000046,-0.00000077,0
 .00479582,0.01565031,0.00528086,0.00343841,0.00084633,-0.00055254,-0.0
 0071198,0.00034547,0.00075892,0.00000039,0.00000023,-0.00000073,-0.000
 00024,0.00000017,0.00000028,0.00000037,0.00000009,0.00000008,0.0000001
 4,-0.00000021,0.00000025,-0.02910952,-0.07747965,-0.07491093,0.0028987
 8,0.00615662,0.00134895,0.02783308,0.08309490,0.07675606,0.00001951,-0
 .00000793,0.00000054,0.00000549,-0.00000188,-0.00000329,0.00004197,0.0
 0001032,-0.00009513,-0.00003350,0.00001557,-0.00002562,0.00005274,-0.0
 0019050,-0.00003215,0.00003693,-0.00001824,0.00002792,0.00003417,0.000
 03982,-0.00017610,0.00184257,-0.00018415,0.00110352,-0.00019625,0.0000
 9108,-0.00068039,-0.00002194,-0.00005414,-0.00019082,0.00000160,0.0000
 3164,0.00000559,0.00003305,-0.00005350,0.00017129,0.00002240,0.0000404
 7,0.00000801,-0.00001324,0.00003683,0.00001037,-0.00000281,-0.00001378
 ,-0.00005694,0.00000590,-0.00001369,-0.00008387,-0.00000602,0.00002333
 ,-0.00003213,0.00000256,-0.00000791,0.00000153,-0.00000586,-0.00000337
 ,0.00000125,-0.00000095,0.00000303,-0.00000648,0.00000024,0.00000300,0
 .00000142,-0.00000108,0.00000042,-0.00000175,0.00000065,0.00000018,-0.
 00000120,0.00000126,0.00000025,0.00000126,-0.00000015,-0.00000090,0.00
 000083,0.00000056,0.00000100,-0.00000072,-0.00000097,-0.00000036,-0.00
 000081,0.00000011,-0.00000025,-0.00000038,0.00000023,0.00000022,-0.000
 00018,0.00000010,-0.00000003,-0.00000019,-0.00000034,0.00000019,0.0000
 0006,0.00000009,-0.00000033,-0.00000022,-0.00000008,-0.00000017,-0.000
 00020,0.00000048,-0.00000112,0.00000142,0.00000005,0.00000007,0.000000
 77,0.00000069,-0.00000032,-0.00000105,0.00000015,0.00000062,0.00000347
 ,0.00390163,-0.00091506,0.02943338,0.00111857,0.00014227,-0.00067371,-
 0.00477080,-0.00144584,0.00291389,0.00000057,0.00000080,0.,-0.00000015
 ,-0.00000013,-0.00000005,0.00000063,0.00000014,0.00000001,-0.00000037,
 0.,-0.00000047,-0.05183933,0.00212806,-0.03913765,-0.00291951,-0.00060
 145,-0.02130947,-0.00231837,0.00154179,-0.00940819,0.05500196,-0.00001
 064,0.00001734,-0.00000124,-0.00000225,-0.00000224,0.00000099,0.000009
 19,-0.00000879,-0.00001195,-0.00000817,0.00000297,0.00000045,0.0000863
 1,-0.00003408,-0.00006046,-0.00001617,-0.00004201,0.00002462,0.0000359
 4,-0.00003103,-0.00001680,0.00019652,0.00027265,-0.00074782,-0.0000630
 2,0.00017989,-0.00011206,-0.00023108,-0.00004358,0.00004833,-0.0000594
 1,0.00020802,0.00002009,0.00008212,-0.00019359,-0.00005877,-0.00011700
 ,-0.00013296,-0.00007272,0.00010434,-0.00002623,0.00005323,0.00008178,
 0.00023201,-0.00000753,-0.00002264,0.00001250,-0.00000692,0.00001742,-
 0.00001803,0.00015753,0.00000357,0.00000044,-0.00000365,-0.00001040,0.
 00000896,0.00001010,0.00000796,0.00000407,0.00000768,-0.00000222,-0.00
 000326,0.00000790,-0.00000030,0.00000124,-0.00000200,-0.00000144,-0.00
 000111,-0.00000188,-0.00000287,-0.00000007,0.00000162,-0.00000096,-0.0
 0000057,-0.00000044,-0.00000101,-0.00000110,-0.00000038,0.00000134,0.0
 0000085,0.00000044,-0.00000038,-0.00000035,-0.00000087,0.00000096,0.00
 000007,-0.00000022,-0.00000046,-0.00000050,0.,0.00000104,0.00000008,0.
 00000016,0.00000044,0.00000010,0.00000025,0.00000056,0.00000026,-0.000
 00006,-0.00000229,0.00000518,-0.00000226,0.00000010,-0.00000167,0.0000
 0062,0.00000015,-0.00000047,-0.00000051,-0.00000026,-0.00000313,0.0000
 0071,0.00149787,-0.00124548,0.00896485,0.00057889,0.00012928,0.0002389
 5,-0.00177663,0.00053525,0.00080576,-0.00000117,-0.00000208,0.00000186
 ,0.00000063,-0.00000027,-0.00000038,-0.00000164,-0.00000017,-0.0000001
 8,-0.00000021,0.00000064,-0.00000098,0.00204195,-0.04734488,0.01336152
 ,0.00182606,-0.00072606,0.02142372,-0.00362270,0.00318505,-0.02762962,
 -0.00060101,0.04506979,0.00001176,-0.00003280,0.00001878,-0.00000181,0
 .00000259,0.00000146,0.00001162,0.00007261,-0.00005994,0.00002355,-0.0
 0000742,0.00002230,0.00005132,-0.00006688,0.00045588,-0.00004482,-0.00
 000680,-0.00002573,-0.00018152,-0.00001672,0.00007490,-0.00130518,0.00
 030715,0.00058573,0.00070814,-0.00046805,0.00039122,0.00016540,-0.0000
 2033,0.00000324,-0.00006064,0.00005246,-0.00021317,0.00006049,0.000007
 15,-0.00005362,-0.00007827,-0.00007767,0.00000855,0.00008510,-0.000023
 92,0.00012402,0.00003790,0.00011771,0.00007997,-0.00001661,-0.00000054
 ,0.00009281,-0.00001125,-0.00005545,0.00006822,-0.00000189,-0.00002129
 ,0.00000358,-0.00000629,0.00000040,-0.00000204,0.00000437,-0.00000897,
 0.00000971,0.00000549,0.00000944,-0.00002327,0.00000143,-0.00000123,0.
 00000584,0.00000208,0.00001002,0.00000500,0.00000309,-0.00000447,-0.00
 000632,0.00000216,-0.00000061,0.00000002,-0.00000074,0.00000178,0.0000
 0048,0.00000013,0.00000193,0.00000087,0.00000088,0.00000138,0.00000201
 ,-0.00000239,-0.00000078,0.00000211,0.00000036,-0.00000148,0.00000032,
 0.00000064,-0.00000230,0.00000079,-0.00000121,0.00000035,0.00000014,-0
 .00000024,-0.00000065,-0.00000034,0.00000574,-0.00000809,0.00000529,-0
 .00000085,-0.00000044,-0.00000183,-0.00000100,0.00000104,0.00000202,-0
 .00000223,-0.00000029,-0.00000313,-0.00185753,0.00063975,-0.01461661,0
 .00014298,0.00027434,0.00078942,0.00303623,0.00117645,-0.00013352,0.00
 000157,0.00000356,-0.00000461,0.00000038,-0.00000065,0.00000025,0.0000
 0279,0.00000012,0.00000082,0.00000058,-0.00000019,0.00000277,-0.037671
 71,0.01341418,-0.30237607,-0.00034344,-0.00015549,-0.00381272,-0.00104
 401,0.00131254,-0.00849494,0.03823756,-0.01639372,0.32706267,0.0037857
 3,-0.03090128,-0.01055940,0.00182545,0.00132764,-0.00146101,-0.0878584
 4,0.01298229,-0.01148489,0.00349491,-0.00106970,0.00074824,0.00150635,
 0.03704763,0.01163834,-0.00573545,0.00414638,-0.00170322,0.00195803,-0
 .00114349,0.00088714,0.00170409,-0.00096768,0.00019292,-0.00004670,-0.
 00010650,0.00004114,-0.00393029,-0.00068422,0.00015427,-0.00147201,0.0
 0015658,-0.00044722,-0.00299288,0.00007132,0.00023823,0.00015172,0.000
 81376,0.00023690,0.00020724,0.00002990,-0.00004492,0.00011890,0.000294
 57,0.00024324,0.00016963,0.00004984,0.00007500,0.00013616,-0.00045104,
 -0.00034066,-0.00003743,-0.00012243,0.00007173,-0.00004569,-0.00006666
 ,-0.00012950,-0.00004721,-0.00010858,-0.00003427,0.00212272,0.00215785
 ,-0.00018019,-0.00018643,-0.00009893,-0.00016255,-0.00649827,0.0010116
 6,-0.00076290,-0.00136600,-0.00170289,0.00182245,-0.00164986,-0.000341
 63,-0.00194291,0.00018560,-0.00025644,0.00009434,0.00010271,-0.0000500
 1,-0.00015791,-0.00002502,-0.00061911,-0.00018831,0.00022289,0.0000219
 0,-0.00006113,0.00019037,0.00052752,-0.00001489,-0.00006821,0.00015604
 ,-0.00008827,-0.00000451,0.00009633,0.00011014,-0.00003786,0.00011622,
 0.00000766,0.00031361,-0.00012582,0.00017572,-0.00010436,0.00008024,0.
 00002022,-0.00001580,0.00005628,0.00003919,-0.00487520,-0.00351219,0.0
 0154321,0.00028205,-0.00000270,0.00004072,-0.00007811,-0.00012726,-0.0
 0004894,-0.00002454,0.00000454,-0.00005714,-0.00015290,0.00012939,0.00
 014805,0.00010436,-0.00008487,-0.00006450,-0.00003855,-0.00011593,-0.0
 0001063,0.00001148,0.00001698,-0.00004328,-0.00014899,-0.00007354,-0.0
 0016080,-0.00008711,0.00008398,0.00003155,0.00003867,0.00001008,0.0000
 5913,0.00000782,-0.00002684,0.00003794,0.44312085,-0.00533265,-0.04069
 584,-0.01130854,0.00216869,0.00225723,-0.00025683,-0.01995903,-0.20104
 846,-0.05873179,-0.00010896,-0.01851168,-0.01572000,0.00554862,-0.0356
 4393,-0.00939068,0.00447293,-0.00176887,0.00101448,-0.00179897,0.00180
 682,-0.00013620,-0.00145019,0.00021184,0.00043415,0.00010376,-0.000011
 68,-0.00003142,-0.00093859,-0.00163214,-0.00085818,-0.00067456,0.00008
 713,-0.00024303,0.00028944,0.00012311,0.00046909,-0.00009249,0.0008272
 4,0.00031374,0.00017000,-0.00012117,-0.00007393,-0.00018073,-0.0003934
 4,0.00007054,-0.00003408,0.00000382,-0.00021533,0.00021532,0.00057062,
 -0.00030225,0.00007742,0.00002917,-0.00000775,0.00004835,0.00001036,0.
 00000879,0.00003734,-0.00000552,-0.00002331,0.00202071,-0.00075647,0.0
 0055290,-0.00009807,0.00006398,0.00001885,0.00122176,-0.00124048,-0.00
 015671,0.00054200,0.00098298,-0.00102976,-0.00089836,0.00059727,0.0014
 5535,0.00001391,0.00076370,0.00008357,-0.00011433,-0.00009397,0.000067
 18,0.00018409,-0.00005935,0.00018176,-0.00001469,-0.00006981,-0.000216
 81,-0.00017103,0.00057933,-0.00016447,-0.00005537,0.00000458,-0.000001
 42,-0.00005250,0.00000209,0.00000423,-0.00003475,-0.00002548,-0.000021
 30,-0.00088417,0.00047248,-0.00030395,0.00022251,0.00054337,0.00001214
 ,0.00002879,-0.00007838,0.00007738,-0.00649420,-0.00305425,0.00123016,
 0.00038756,0.00029737,-0.00021253,-0.00011826,0.00038289,0.00008306,-0
 .00002220,-0.00006342,0.00004594,-0.00011322,-0.00003874,0.00018471,-0
 .00021693,0.00012545,-0.00003474,-0.00017381,0.00004618,-0.00003777,-0
 .00000039,-0.00000631,-0.00003708,0.00007715,-0.00001517,0.00011466,0.
 00011476,0.00002036,-0.00003031,0.00015401,0.00008335,-0.00002540,0.00
 000418,-0.00000016,-0.00003270,-0.17747012,0.43019811,-0.00048039,0.00
 541921,0.00631743,-0.00203493,-0.00035209,0.00286460,-0.02213985,-0.04
 266840,-0.09528002,-0.00149305,-0.04268949,-0.00966761,0.00078491,0.00
 872734,0.00586213,-0.00219416,0.00195737,0.00011090,0.00158734,0.00007
 983,0.00137277,-0.00009336,0.00020227,-0.00017509,-0.00043714,-0.00001
 118,0.00032295,0.00050010,-0.00014853,0.00016747,0.00075430,0.00052593
 ,-0.00024855,-0.00145021,-0.00111365,-0.00122848,-0.00005822,-0.000863
 68,-0.00049009,-0.00027103,0.00002105,0.00025909,0.00009277,0.00109829
 ,0.00008712,0.00015769,-0.00012443,0.00006993,0.00004997,-0.00011414,0
 .00070644,-0.00002220,-0.00000922,-0.00000414,0.00005972,0.00002080,0.
 00002609,0.00000879,0.00001019,0.00003301,0.00040461,0.00012635,-0.000
 34905,0.00047970,0.00006753,0.00034678,-0.00098505,0.00016533,0.000117
 05,-0.00110786,0.00085233,-0.00004724,0.00151333,-0.00094308,-0.000711
 50,0.00010482,-0.00142449,-0.00062722,0.00027322,0.00005722,0.00017909
 ,-0.00000440,0.00173678,-0.00006250,-0.00029712,-0.00016116,0.00017574
 ,-0.00011487,-0.00004157,0.00106524,0.00004411,-0.00001647,0.00001721,
 -0.00007038,0.00001484,0.00000563,-0.00000598,-0.00001672,0.00004121,-
 0.00005082,0.00003898,0.00016673,0.00000807,0.00000194,-0.00001080,-0.
 00007950,-0.00004522,0.00001455,0.00172058,0.00201368,0.00102452,-0.00
 007811,0.00004413,0.00014494,0.00000360,-0.00004185,-0.00002968,0.0000
 7453,-0.00003324,0.00000679,0.00003236,-0.00000869,-0.00005272,-0.0000
 1242,0.00000866,-0.00000828,0.00000360,0.00000188,0.00000630,0.0000089
 8,0.00000793,0.00002168,-0.00001913,-0.00004622,-0.00003456,0.00001589
 ,-0.00000590,0.00000013,-0.00000243,0.00001265,-0.00000009,-0.00000942
 ,0.00000185,0.00001683,0.16397366,0.01734361,0.15773557,0.00130211,-0.
 00177419,-0.00028616,-0.00002122,0.00002152,0.00013004,0.00155079,-0.0
 0151726,0.00152207,0.00007960,-0.00197647,-0.00148669,0.00096630,-0.00
 028115,0.00028655,0.00008710,-0.00052914,-0.00021082,0.00005854,-0.000
 05326,0.00013537,0.00009106,-0.00020321,-0.00008414,-0.00005804,0.0000
 2130,0.00005030,-0.00032376,-0.00009445,-0.00000368,0.00010307,0.00022
 546,-0.00008037,-0.00016845,0.00002532,0.00006155,0.00005846,-0.000202
 00,-0.00005614,-0.00006774,0.00000408,0.00007559,0.00004734,0.00014713
 ,-0.00000015,0.00001225,-0.00002414,-0.00001329,0.00002350,-0.00010234
 ,0.00005786,-0.00002259,0.00000634,-0.00000620,0.00000172,0.00000789,0
 .00002141,0.00000055,0.00002242,0.00001321,0.00021026,-0.00164242,-0.0
 0033930,-0.00003700,0.00015369,0.00016558,-0.00095915,-0.00204917,0.00
 007755,-0.00095642,0.00144126,-0.00255202,-0.00212374,0.00097387,0.002
 73748,-0.00050751,0.00105139,0.00010806,0.00016187,0.00006935,0.000317
 81,-0.00005479,-0.00053548,0.00034857,0.00019911,0.00010087,-0.0002641
 2,0.00002020,-0.00007654,-0.00058418,0.00011174,-0.00021550,0.00014260
 ,0.00010476,-0.00011983,-0.00015115,0.00011119,-0.00015342,-0.00004074
 ,-0.00037579,0.00019046,0.00013074,0.00013684,0.00027378,-0.00001439,0
 .00003118,-0.00005562,-0.00000256,-0.00063688,-0.00021636,0.00001887,0
 .00004677,0.00010261,-0.00007396,-0.00000435,-0.00001026,-0.00000826,0
 .00001426,-0.00001130,0.00002212,0.00011000,0.00006046,-0.00010203,-0.
 00016953,0.00007223,0.00002585,0.00003319,0.00009341,0.00001450,-0.000
 00949,-0.00001252,0.00002991,0.00002151,-0.00007136,0.00002526,0.00005
 033,-0.00000777,-0.00001186,-0.00000688,0.00001960,0.00000429,-0.00000
 298,0.00000804,-0.00000808,-0.34423352,0.19939931,-0.13914462,0.344994
 21,0.00000650,0.00049500,0.00124788,-0.00014869,-0.00025336,0.00002834
 ,0.03385376,-0.02387762,0.01325518,0.00017967,0.00182116,-0.00008831,-
 0.00157315,-0.00627958,-0.00301332,0.00146986,-0.00059627,0.00040374,-
 0.00039820,0.00021630,-0.00004603,-0.00015176,-0.00009264,-0.00008773,
 0.00004621,0.00000938,-0.00000073,0.00044060,0.00011030,-0.00010562,-0
 .00006956,0.00007425,-0.00001496,-0.00027951,-0.00012079,-0.00000113,0
 .00002331,-0.00002779,-0.00001717,-0.00000404,0.00002699,0.00001798,0.
 00000149,0.00025798,0.00002879,0.00006578,-0.00002625,0.00003909,0.000
 04940,-0.00019398,0.00001694,-0.00003777,-0.00003046,0.00002467,-0.000
 01011,-0.00000963,-0.00001809,-0.00002616,-0.00002125,-0.00000151,-0.0
 0151112,-0.00112705,-0.00035510,0.00002559,-0.00006348,0.00004951,-0.0
 0008068,0.00082153,-0.00074950,0.00023103,0.00028334,0.00029673,0.0007
 9953,0.00048111,0.00022217,0.00003045,-0.00041443,0.00019010,-0.000101
 51,0.00002729,-0.00012626,0.00016098,0.00000966,-0.00000195,-0.0001687
 9,-0.00002930,0.00015137,-0.00001306,-0.00082012,-0.00042159,0.0000029
 3,-0.00004006,0.00001354,-0.00002666,-0.00004526,-0.00000999,0.0000177
 6,0.00000432,0.00001707,0.00000773,-0.00028829,0.00008622,0.00000873,-
 0.00003707,-0.00000902,0.00004717,0.00002457,-0.00004475,0.00062716,0.
 00063671,-0.00017407,0.00007392,-0.00005107,-0.00000293,-0.00002495,0.
 00005836,0.00000725,-0.00001686,0.00000340,-0.00000140,0.00010103,0.00
 010657,-0.00007265,0.00002138,-0.00000913,0.00001557,0.00007979,0.0000
 0411,0.00002658,-0.00000273,-0.00000804,0.00002285,-0.00001729,0.00005
 144,0.00001683,-0.00001194,0.00000437,0.00000616,0.00001768,0.00000143
 ,-0.00000618,0.00000078,-0.00000276,0.00000298,0.15884095,-0.13575610,
 0.05032147,-0.19255662,0.16469219,-0.00059002,-0.00043551,0.00040734,0
 .00001524,0.00033497,-0.00027812,0.01322072,-0.01071549,0.00210088,0.0
 0095172,-0.00029814,0.00059037,-0.00028875,-0.00244593,-0.00062563,0.0
 0047942,-0.00042504,0.00079061,0.00015241,-0.00013905,0.00032753,-0.00
 013118,0.00006084,0.00009949,0.00004467,0.00000800,-0.00005721,-0.0002
 7665,-0.00017114,-0.00005365,0.00014434,0.00019741,-0.00002943,0.00005
 547,-0.00004847,0.00007003,-0.00006432,-0.00005674,-0.00005772,0.00004
 990,-0.00002607,-0.00005730,-0.00000564,0.00009755,-0.00005047,0.00002
 163,0.00000313,0.00001281,0.00004501,0.00000529,0.00009835,0.00001172,
 0.00001457,-0.00000256,-0.00001691,-0.00000567,-0.00001758,-0.00000859
 ,-0.00001297,-0.00000229,0.00022384,-0.00003374,0.00054157,-0.00012567
 ,-0.00014493,-0.00026240,-0.00021500,-0.00050842,0.00112566,0.00079407
 ,-0.00097320,-0.00048943,-0.00056102,0.00104480,0.00000472,-0.00001806
 ,0.00196684,0.00079662,-0.00041687,-0.00011280,-0.00034406,0.00005109,
 -0.00198908,-0.00016254,0.00015476,0.00009200,-0.00017556,0.00012861,0
 .00016484,-0.00104474,-0.00007304,-0.00000872,-0.00001319,0.00004956,0
 .00001707,0.00000131,0.00000134,0.00000319,-0.00007801,-0.00015374,0.0
 0007891,-0.00011490,0.00002343,0.00005187,0.00000179,0.00004326,0.0000
 2599,-0.00004474,-0.00022046,-0.00031635,-0.00012575,0.00002221,-0.000
 00576,-0.00005467,0.00001351,0.00002425,0.00002034,-0.00001015,-0.0000
 0330,-0.00000954,-0.00003774,-0.00002828,0.00001004,-0.00000559,0.0000
 0574,0.00001085,-0.00001535,0.00000609,-0.00000592,-0.00000847,-0.0000
 0760,-0.00001746,0.00000686,-0.00000053,0.00001124,0.00000496,0.000004
 67,-0.00000412,0.00000895,0.00000583,-0.00000078,0.00000446,0.00000022
 ,-0.00001017,-0.15248165,0.07583788,-0.07025832,0.13900172,-0.06113901
 ,0.06742673\\0.00000006,0.00000165,0.00000233,-0.00000021,0.00000219,-
 0.00000079,0.00000008,-0.00000270,-0.00000331,0.00000004,0.00000144,0.
 ,0.00000591,-0.00000028,-0.00000078,0.00000282,0.00000023,0.00000470,-
 0.00000246,0.00000086,0.00000270,-0.00001259,0.00000162,-0.00000078,0.
 00000119,0.00000024,0.00000095,-0.00000016,-0.00000078,0.00000069,0.00
 000154,-0.00000147,0.00000101,0.00000360,0.00000547,0.00000233,0.00000
 097,0.00000090,-0.00000120,-0.00000061,-0.00000047,0.00000020,-0.00000
 058,-0.00000070,-0.00000087,-0.00000168,0.00000037,-0.00000014,-0.0000
 0203,0.00000093,-0.00000173,-0.00000092,-0.00000027,-0.00000108,-0.000
 00059,0.00000205,-0.00000073,0.00000065,0.00000062,-0.00000182,-0.0000
 1606,-0.00000367,0.00000192,0.00000025,-0.00000180,0.00000002,0.000002
 26,0.00000126,-0.00000295,0.00000139,-0.00000641,0.00000046,-0.0000018
 6,0.00000334,0.00000116,-0.00000023,0.00000286,-0.00000057,-0.00000075
 ,-0.00000030,-0.00000088,0.00000077,-0.00000338,0.00000069,-0.00000151
 ,0.00000020,-0.00000094,-0.00000084,0.00000061,-0.00000508,-0.00000033
 ,-0.00000176,-0.00000241,-0.00000115,0.00000159,-0.00000215,0.00000073
 ,0.00000026,-0.00000253,0.00000930,0.00000305,-0.00000199,0.00000130,-
 0.00000017,0.00000167,-0.00000158,-0.00000242,0.00000153,0.00000111,0.
 00000087,0.00000003,0.00000929,-0.00000136,0.00000176,0.00000012,0.000
 00045,0.00000177,-0.00000118,0.00000179,0.00000258,-0.00000234,-0.0000
 0160,-0.00000011,0.00000058,-0.00000046,-0.00000023,-0.00000026,0.0000
 0019,0.00000044,0.00000088,-0.00000166,0.00000056,0.00000047,-0.000000
 36,0.00000178,0.00000013,-0.00000060,0.00000147,0.00000080,-0.00000136
 ,0.00000006,0.00000077,-0.00000001,0.00000108,-0.00000025,-0.00000032,
 -0.00000276,0.00000316,-0.00000075,0.00000196\\\@


 ABOVE ALL I AM AN OPTIMIST FOR NUMBER THEORY,
 AND I HOLD THE HOPE THAT WE MAY NOT BE FAR FROM
 A TIME WHEN IRREFUTABLE ARITHMETIC WILL CELEBRATE
 ITS TRIUMPHS IN PHYSICS AND CHEMISTRY.
   -- HERMANN MINKOWSKI, 1905
 Job cpu time:       0 days  8 hours 37 minutes 14.8 seconds.
 Elapsed time:       0 days  2 hours  9 minutes 23.5 seconds.
 File lengths (MBytes):  RWF=   1260 Int=      0 D2E=      0 Chk=     33 Scr=      1
 Normal termination of Gaussian 16 at Sat Sep 14 01:31:43 2024.
