 Entering Gaussian System, Link 0=g16
 Initial command:
 /home/jsn/save/G16-linux/g16/l1.exe "/home/jsn/save/G16-linux/g16/scratch/Gau-37705.inp" -scrdir="/home/jsn/save/G16-linux/g16/scratch/"
 Entering Link 1 = /home/jsn/save/G16-linux/g16/l1.exe PID=     37709.
  
 Copyright (c) 1988,1990,1992,1993,1995,1998,2003,2009,2016,
            Gaussian, Inc.  All Rights Reserved.
  
 This is part of the Gaussian(R) 16 program.  It is based on
 the Gaussian(R) 09 system (copyright 2009, Gaussian, Inc.),
 the Gaussian(R) 03 system (copyright 2003, Gaussian, Inc.),
 the Gaussian(R) 98 system (copyright 1998, Gaussian, Inc.),
 the Gaussian(R) 94 system (copyright 1995, Gaussian, Inc.),
 the Gaussian 92(TM) system (copyright 1992, Gaussian, Inc.),
 the Gaussian 90(TM) system (copyright 1990, Gaussian, Inc.),
 the Gaussian 88(TM) system (copyright 1988, Gaussian, Inc.),
 the Gaussian 86(TM) system (copyright 1986, Carnegie Mellon
 University), and the Gaussian 82(TM) system (copyright 1983,
 Carnegie Mellon University). Gaussian is a federally registered
 trademark of Gaussian, Inc.
  
 This software contains proprietary and confidential information,
 including trade secrets, belonging to Gaussian, Inc.
  
 This software is provided under written license and may be
 used, copied, transmitted, or stored only in accord with that
 written license.
  
 The following legend is applicable only to US Government
 contracts under FAR:
  
                    RESTRICTED RIGHTS LEGEND
  
 Use, reproduction and disclosure by the US Government is
 subject to restrictions as set forth in subparagraphs (a)
 and (c) of the Commercial Computer Software - Restricted
 Rights clause in FAR 52.227-19.
  
 Gaussian, Inc.
 340 Quinnipiac St., Bldg. 40, Wallingford CT 06492
  
  
 ---------------------------------------------------------------
 Warning -- This program may not be used in any manner that
 competes with the business of Gaussian, Inc. or will provide
 assistance to any competitor of Gaussian, Inc.  The licensee
 of this program is prohibited from giving any competitor of
 Gaussian, Inc. access to this program.  By using this program,
 the user acknowledges that Gaussian, Inc. is engaged in the
 business of creating and licensing software in the field of
 computational chemistry and represents and warrants to the
 licensee that it is not a competitor of Gaussian, Inc. and that
 it will not use this program in any manner prohibited above.
 ---------------------------------------------------------------
  

 Cite this work as:
 Gaussian 16, Revision A.03,
 M. J. Frisch, G. W. Trucks, H. B. Schlegel, G. E. Scuseria, 
 M. A. Robb, J. R. Cheeseman, G. Scalmani, V. Barone, 
 G. A. Petersson, H. Nakatsuji, X. Li, M. Caricato, A. V. Marenich, 
 J. Bloino, B. G. Janesko, R. Gomperts, B. Mennucci, H. P. Hratchian, 
 J. V. Ortiz, A. F. Izmaylov, J. L. Sonnenberg, D. Williams-Young, 
 F. Ding, F. Lipparini, F. Egidi, J. Goings, B. Peng, A. Petrone, 
 T. Henderson, D. Ranasinghe, V. G. Zakrzewski, J. Gao, N. Rega, 
 G. Zheng, W. Liang, M. Hada, M. Ehara, K. Toyota, R. Fukuda, 
 J. Hasegawa, M. Ishida, T. Nakajima, Y. Honda, O. Kitao, H. Nakai, 
 T. Vreven, K. Throssell, J. A. Montgomery, Jr., J. E. Peralta, 
 F. Ogliaro, M. J. Bearpark, J. J. Heyd, E. N. Brothers, K. N. Kudin, 
 V. N. Staroverov, T. A. Keith, R. Kobayashi, J. Normand, 
 K. Raghavachari, A. P. Rendell, J. C. Burant, S. S. Iyengar, 
 J. Tomasi, M. Cossi, J. M. Millam, M. Klene, C. Adamo, R. Cammi, 
 J. W. Ochterski, R. L. Martin, K. Morokuma, O. Farkas, 
 J. B. Foresman, and D. J. Fox, Gaussian, Inc., Wallingford CT, 2016.
 
 ******************************************
 Gaussian 16:  ES64L-G16RevA.03 25-Dec-2016
                13-Sep-2024 
 ******************************************
 %chk=ph.chk
 %mem=4GB
 %nproc=4
 Will use up to    4 processors via shared memory.
 -------------------------------------------------------------------
 #p opt freq b3lyp scrf=(solvent=diphenylether,pcm) def2svp em=gd3bj
 -------------------------------------------------------------------
 1/18=20,19=15,26=3,38=1/1,3;
 2/9=110,12=2,17=6,18=5,40=1/2;
 3/5=43,7=101,11=2,25=1,30=1,70=2201,71=1,72=112,74=-5,124=41/1,2,3;
 4//1;
 5/5=2,38=5,53=112/2;
 6/7=2,8=2,9=2,10=2,28=1/1;
 7//1,2,3,16;
 1/18=20,19=15,26=3/3(2);
 2/9=110/2;
 99//99;
 2/9=110/2;
 3/5=43,7=101,11=2,25=1,30=1,70=2205,71=1,72=112,74=-5,124=41/1,2,3;
 4/5=5,16=3,69=1/1;
 5/5=2,38=5,53=112/2;
 7//1,2,3,16;
 1/18=20,19=15,26=3/3(-5);
 2/9=110/2;
 6/7=2,8=2,9=2,10=2,19=2,28=1/1;
 99/9=1/99;
 Leave Link    1 at Fri Sep 13 01:35:13 2024, MaxMem=   536870912 cpu:               0.5 elap:               0.1
 (Enter /home/jsn/save/G16-linux/g16/l101.exe)
 -------------------
 Title Card Required
 -------------------
 Symbolic Z-matrix:
 Charge =  0 Multiplicity = 1
 C                     1.25455   2.01086  -0.35323 
 H                     1.16733   1.70266  -1.40877 
 C                    -0.03713   1.63671   0.40048 
 H                     0.03555   2.08918   1.40506 
 C                    -1.24672   2.29034  -0.2971 
 H                    -1.07241   3.37961  -0.30373 
 H                    -1.27026   1.98714  -1.35762 
 C                    -2.6233    2.01517   0.34475 
 H                    -2.48724   2.01333   1.43973 
 C                    -0.19884   0.14398   0.61386 
 C                    -0.23198  -0.3841    1.90911 
 C                    -0.31804  -0.73993  -0.46812 
 C                    -0.37945  -1.75747   2.12632 
 H                    -0.13991   0.29317   2.76286 
 C                    -0.46554  -2.10896  -0.26005 
 H                    -0.29452  -0.35218  -1.48818 
 C                    -0.49702  -2.62494   1.04023 
 H                    -0.40239  -2.14822   3.14693 
 H                    -0.55694  -2.7804   -1.11677 
 H                    -0.61278  -3.69939   1.20213 
 C                    -3.19905   0.66016  -0.03925 
 C                    -3.49936  -0.29997   0.93501 
 C                    -3.45548   0.342    -1.38236 
 C                    -4.01403  -1.5498    0.58258 
 H                    -3.29737  -0.07488   1.98458 
 C                    -3.97554  -0.90282  -1.74161 
 H                    -3.23488   1.07292  -2.16464 
 C                    -4.25252  -1.85829  -0.75888 
 H                    -4.21945  -2.28948   1.3603 
 H                    -4.1611   -1.13038  -2.79459 
 H                    -4.65008  -2.83721  -1.03789 
 C                     2.56423   1.44957   0.2389 
 H                     2.47559   1.47789   1.33925 
 C                     2.81518   0.00261  -0.15587 
 C                     2.92938  -1.00338   0.81135 
 C                     2.9534   -0.35884  -1.50519 
 C                     3.14611  -2.33431   0.44726 
 H                     2.81807  -0.74223   1.86591 
 C                     3.17725  -1.68586  -1.87665 
 H                     2.87585   0.40615  -2.28212 
 C                     3.26852  -2.68264  -0.90005 
 H                     3.21032  -3.10367   1.22062 
 H                     3.27609  -1.94456  -2.93414 
 H                     3.43349  -3.72371  -1.18834 
 C                     3.76065   2.34742  -0.14212 
 H                     3.53458   3.37709   0.18514 
 H                     3.84178   2.39097  -1.24286 
 H                     1.31798   3.11208  -0.36918 
 C                    -3.61561   3.13919   0.00348 
 H                    -3.25169   4.1106    0.37515 
 H                    -3.75428   3.2281   -1.08627 
 C                     5.09156   1.90104   0.45773 
 H                     5.37877   0.90034   0.09985 
 H                     5.90127   2.59986   0.19471 
 H                     5.03363   1.85314   1.55819 
 C                    -4.99621   2.86851   0.62978 
 H                    -5.52159   3.79309   0.74824 
 H                    -5.55682   2.21911  -0.00967 
 H                    -4.86948   2.40526   1.58594 
 
 ITRead=  0  0  0  0  0  0  0  0  0  0  0  0  0  0  0  0  0  0  0  0
 ITRead=  0  0  0  0  0  0  0  0  0  0  0  0  0  0  0  0  0  0  0  0
 ITRead=  0  0  0  0  0  0  0  0  0  0  0  0  0  0  0  0  0  0  0
 MicOpt= -1 -1 -1 -1 -1 -1 -1 -1 -1 -1 -1 -1 -1 -1 -1 -1 -1 -1 -1 -1
 MicOpt= -1 -1 -1 -1 -1 -1 -1 -1 -1 -1 -1 -1 -1 -1 -1 -1 -1 -1 -1 -1
 MicOpt= -1 -1 -1 -1 -1 -1 -1 -1 -1 -1 -1 -1 -1 -1 -1 -1 -1 -1 -1
 NAtoms=     59 NQM=       59 NQMF=       0 NMMI=      0 NMMIF=      0
                NMic=       0 NMicF=      0.
                    Isotopes and Nuclear Properties:
 (Nuclear quadrupole moments (NQMom) in fm**2, nuclear magnetic moments (NMagM)
  in nuclear magnetons)

  Atom         1           2           3           4           5           6           7           8           9          10
 IAtWgt=          12           1          12           1          12           1           1          12           1          12
 AtmWgt=  12.0000000   1.0078250  12.0000000   1.0078250  12.0000000   1.0078250   1.0078250  12.0000000   1.0078250  12.0000000
 NucSpn=           0           1           0           1           0           1           1           0           1           0
 AtZEff=  -0.0000000  -0.0000000  -0.0000000  -0.0000000  -0.0000000  -0.0000000  -0.0000000  -0.0000000  -0.0000000  -0.0000000
 NQMom=    0.0000000   0.0000000   0.0000000   0.0000000   0.0000000   0.0000000   0.0000000   0.0000000   0.0000000   0.0000000
 NMagM=    0.0000000   2.7928460   0.0000000   2.7928460   0.0000000   2.7928460   2.7928460   0.0000000   2.7928460   0.0000000
 AtZNuc=   6.0000000   1.0000000   6.0000000   1.0000000   6.0000000   1.0000000   1.0000000   6.0000000   1.0000000   6.0000000

  Atom        11          12          13          14          15          16          17          18          19          20
 IAtWgt=          12          12          12           1          12           1          12           1           1           1
 AtmWgt=  12.0000000  12.0000000  12.0000000   1.0078250  12.0000000   1.0078250  12.0000000   1.0078250   1.0078250   1.0078250
 NucSpn=           0           0           0           1           0           1           0           1           1           1
 AtZEff=  -0.0000000  -0.0000000  -0.0000000  -0.0000000  -0.0000000  -0.0000000  -0.0000000  -0.0000000  -0.0000000  -0.0000000
 NQMom=    0.0000000   0.0000000   0.0000000   0.0000000   0.0000000   0.0000000   0.0000000   0.0000000   0.0000000   0.0000000
 NMagM=    0.0000000   0.0000000   0.0000000   2.7928460   0.0000000   2.7928460   0.0000000   2.7928460   2.7928460   2.7928460
 AtZNuc=   6.0000000   6.0000000   6.0000000   1.0000000   6.0000000   1.0000000   6.0000000   1.0000000   1.0000000   1.0000000

  Atom        21          22          23          24          25          26          27          28          29          30
 IAtWgt=          12          12          12          12           1          12           1          12           1           1
 AtmWgt=  12.0000000  12.0000000  12.0000000  12.0000000   1.0078250  12.0000000   1.0078250  12.0000000   1.0078250   1.0078250
 NucSpn=           0           0           0           0           1           0           1           0           1           1
 AtZEff=  -0.0000000  -0.0000000  -0.0000000  -0.0000000  -0.0000000  -0.0000000  -0.0000000  -0.0000000  -0.0000000  -0.0000000
 NQMom=    0.0000000   0.0000000   0.0000000   0.0000000   0.0000000   0.0000000   0.0000000   0.0000000   0.0000000   0.0000000
 NMagM=    0.0000000   0.0000000   0.0000000   0.0000000   2.7928460   0.0000000   2.7928460   0.0000000   2.7928460   2.7928460
 AtZNuc=   6.0000000   6.0000000   6.0000000   6.0000000   1.0000000   6.0000000   1.0000000   6.0000000   1.0000000   1.0000000

  Atom        31          32          33          34          35          36          37          38          39          40
 IAtWgt=           1          12           1          12          12          12          12           1          12           1
 AtmWgt=   1.0078250  12.0000000   1.0078250  12.0000000  12.0000000  12.0000000  12.0000000   1.0078250  12.0000000   1.0078250
 NucSpn=           1           0           1           0           0           0           0           1           0           1
 AtZEff=  -0.0000000  -0.0000000  -0.0000000  -0.0000000  -0.0000000  -0.0000000  -0.0000000  -0.0000000  -0.0000000  -0.0000000
 NQMom=    0.0000000   0.0000000   0.0000000   0.0000000   0.0000000   0.0000000   0.0000000   0.0000000   0.0000000   0.0000000
 NMagM=    2.7928460   0.0000000   2.7928460   0.0000000   0.0000000   0.0000000   0.0000000   2.7928460   0.0000000   2.7928460
 AtZNuc=   1.0000000   6.0000000   1.0000000   6.0000000   6.0000000   6.0000000   6.0000000   1.0000000   6.0000000   1.0000000

  Atom        41          42          43          44          45          46          47          48          49          50
 IAtWgt=          12           1           1           1          12           1           1           1          12           1
 AtmWgt=  12.0000000   1.0078250   1.0078250   1.0078250  12.0000000   1.0078250   1.0078250   1.0078250  12.0000000   1.0078250
 NucSpn=           0           1           1           1           0           1           1           1           0           1
 AtZEff=  -0.0000000  -0.0000000  -0.0000000  -0.0000000  -0.0000000  -0.0000000  -0.0000000  -0.0000000  -0.0000000  -0.0000000
 NQMom=    0.0000000   0.0000000   0.0000000   0.0000000   0.0000000   0.0000000   0.0000000   0.0000000   0.0000000   0.0000000
 NMagM=    0.0000000   2.7928460   2.7928460   2.7928460   0.0000000   2.7928460   2.7928460   2.7928460   0.0000000   2.7928460
 AtZNuc=   6.0000000   1.0000000   1.0000000   1.0000000   6.0000000   1.0000000   1.0000000   1.0000000   6.0000000   1.0000000

  Atom        51          52          53          54          55          56          57          58          59
 IAtWgt=           1          12           1           1           1          12           1           1           1
 AtmWgt=   1.0078250  12.0000000   1.0078250   1.0078250   1.0078250  12.0000000   1.0078250   1.0078250   1.0078250
 NucSpn=           1           0           1           1           1           0           1           1           1
 AtZEff=  -0.0000000  -0.0000000  -0.0000000  -0.0000000  -0.0000000  -0.0000000  -0.0000000  -0.0000000  -0.0000000
 NQMom=    0.0000000   0.0000000   0.0000000   0.0000000   0.0000000   0.0000000   0.0000000   0.0000000   0.0000000
 NMagM=    2.7928460   0.0000000   2.7928460   2.7928460   2.7928460   0.0000000   2.7928460   2.7928460   2.7928460
 AtZNuc=   1.0000000   6.0000000   1.0000000   1.0000000   1.0000000   6.0000000   1.0000000   1.0000000   1.0000000
 Leave Link  101 at Fri Sep 13 01:35:17 2024, MaxMem=   536870912 cpu:              13.0 elap:               3.3
 (Enter /home/jsn/save/G16-linux/g16/l103.exe)

 GradGradGradGradGradGradGradGradGradGradGradGradGradGradGradGradGradGrad
 Berny optimization.
 Initialization pass.
                           ----------------------------
                           !    Initial Parameters    !
                           ! (Angstroms and Degrees)  !
 --------------------------                            --------------------------
 ! Name  Definition              Value          Derivative Info.                !
 --------------------------------------------------------------------------------
 ! R1    R(1,2)                  1.1031         estimate D2E/DX2                !
 ! R2    R(1,3)                  1.5416         estimate D2E/DX2                !
 ! R3    R(1,32)                 1.543          estimate D2E/DX2                !
 ! R4    R(1,48)                 1.1032         estimate D2E/DX2                !
 ! R5    R(3,4)                  1.1042         estimate D2E/DX2                !
 ! R6    R(3,5)                  1.5417         estimate D2E/DX2                !
 ! R7    R(3,10)                 1.5165         estimate D2E/DX2                !
 ! R8    R(5,6)                  1.1031         estimate D2E/DX2                !
 ! R9    R(5,7)                  1.1033         estimate D2E/DX2                !
 ! R10   R(5,8)                  1.5436         estimate D2E/DX2                !
 ! R11   R(8,9)                  1.1034         estimate D2E/DX2                !
 ! R12   R(8,21)                 1.5215         estimate D2E/DX2                !
 ! R13   R(8,49)                 1.5377         estimate D2E/DX2                !
 ! R14   R(10,11)                1.3992         estimate D2E/DX2                !
 ! R15   R(10,12)                1.4022         estimate D2E/DX2                !
 ! R16   R(11,13)                1.3982         estimate D2E/DX2                !
 ! R17   R(11,14)                1.0936         estimate D2E/DX2                !
 ! R18   R(12,15)                1.3926         estimate D2E/DX2                !
 ! R19   R(12,16)                1.0915         estimate D2E/DX2                !
 ! R20   R(13,17)                1.395          estimate D2E/DX2                !
 ! R21   R(13,18)                1.0931         estimate D2E/DX2                !
 ! R22   R(15,17)                1.3993         estimate D2E/DX2                !
 ! R23   R(15,19)                1.0923         estimate D2E/DX2                !
 ! R24   R(17,20)                1.0927         estimate D2E/DX2                !
 ! R25   R(21,22)                1.4004         estimate D2E/DX2                !
 ! R26   R(21,23)                1.4039         estimate D2E/DX2                !
 ! R27   R(22,24)                1.3968         estimate D2E/DX2                !
 ! R28   R(22,25)                1.0923         estimate D2E/DX2                !
 ! R29   R(23,26)                1.3961         estimate D2E/DX2                !
 ! R30   R(23,27)                1.0931         estimate D2E/DX2                !
 ! R31   R(24,28)                1.397          estimate D2E/DX2                !
 ! R32   R(24,29)                1.0928         estimate D2E/DX2                !
 ! R33   R(26,28)                1.3984         estimate D2E/DX2                !
 ! R34   R(26,30)                1.0932         estimate D2E/DX2                !
 ! R35   R(28,31)                1.0928         estimate D2E/DX2                !
 ! R36   R(32,33)                1.1043         estimate D2E/DX2                !
 ! R37   R(32,34)                1.5207         estimate D2E/DX2                !
 ! R38   R(32,45)                1.5436         estimate D2E/DX2                !
 ! R39   R(34,35)                1.4002         estimate D2E/DX2                !
 ! R40   R(34,36)                1.4037         estimate D2E/DX2                !
 ! R41   R(35,37)                1.3968         estimate D2E/DX2                !
 ! R42   R(35,38)                1.0921         estimate D2E/DX2                !
 ! R43   R(36,39)                1.3961         estimate D2E/DX2                !
 ! R44   R(36,40)                1.0931         estimate D2E/DX2                !
 ! R45   R(37,41)                1.397          estimate D2E/DX2                !
 ! R46   R(37,42)                1.0928         estimate D2E/DX2                !
 ! R47   R(39,41)                1.3984         estimate D2E/DX2                !
 ! R48   R(39,43)                1.0931         estimate D2E/DX2                !
 ! R49   R(41,44)                1.0928         estimate D2E/DX2                !
 ! R50   R(45,46)                1.1038         estimate D2E/DX2                !
 ! R51   R(45,47)                1.1046         estimate D2E/DX2                !
 ! R52   R(45,52)                1.5266         estimate D2E/DX2                !
 ! R53   R(49,50)                1.1019         estimate D2E/DX2                !
 ! R54   R(49,51)                1.1021         estimate D2E/DX2                !
 ! R55   R(49,56)                1.54           estimate D2E/DX2                !
 ! R56   R(52,53)                1.1009         estimate D2E/DX2                !
 ! R57   R(52,54)                1.1014         estimate D2E/DX2                !
 ! R58   R(52,55)                1.103          estimate D2E/DX2                !
 ! R59   R(56,57)                1.07           estimate D2E/DX2                !
 ! R60   R(56,58)                1.07           estimate D2E/DX2                !
 ! R61   R(56,59)                1.07           estimate D2E/DX2                !
 ! A1    A(2,1,3)              109.4986         estimate D2E/DX2                !
 ! A2    A(2,1,32)             109.4319         estimate D2E/DX2                !
 ! A3    A(2,1,48)             105.642          estimate D2E/DX2                !
 ! A4    A(3,1,32)             115.8023         estimate D2E/DX2                !
 ! A5    A(3,1,48)             107.3091         estimate D2E/DX2                !
 ! A6    A(32,1,48)            108.6551         estimate D2E/DX2                !
 ! A7    A(1,3,4)              106.8709         estimate D2E/DX2                !
 ! A8    A(1,3,5)              109.4666         estimate D2E/DX2                !
 ! A9    A(1,3,10)             113.3928         estimate D2E/DX2                !
 ! A10   A(4,3,5)              106.8317         estimate D2E/DX2                !
 ! A11   A(4,3,10)             106.4009         estimate D2E/DX2                !
 ! A12   A(5,3,10)             113.4094         estimate D2E/DX2                !
 ! A13   A(3,5,6)              107.2997         estimate D2E/DX2                !
 ! A14   A(3,5,7)              109.5828         estimate D2E/DX2                !
 ! A15   A(3,5,8)              115.8461         estimate D2E/DX2                !
 ! A16   A(6,5,7)              105.6027         estimate D2E/DX2                !
 ! A17   A(6,5,8)              108.6287         estimate D2E/DX2                !
 ! A18   A(7,5,8)              109.3711         estimate D2E/DX2                !
 ! A19   A(5,8,9)              107.6367         estimate D2E/DX2                !
 ! A20   A(5,8,21)             113.0342         estimate D2E/DX2                !
 ! A21   A(5,8,49)             110.665          estimate D2E/DX2                !
 ! A22   A(9,8,21)             107.1952         estimate D2E/DX2                !
 ! A23   A(9,8,49)             107.5198         estimate D2E/DX2                !
 ! A24   A(21,8,49)            110.5342         estimate D2E/DX2                !
 ! A25   A(3,10,11)            120.283          estimate D2E/DX2                !
 ! A26   A(3,10,12)            121.3971         estimate D2E/DX2                !
 ! A27   A(11,10,12)           118.3199         estimate D2E/DX2                !
 ! A28   A(10,11,13)           121.1327         estimate D2E/DX2                !
 ! A29   A(10,11,14)           119.1402         estimate D2E/DX2                !
 ! A30   A(13,11,14)           119.7271         estimate D2E/DX2                !
 ! A31   A(10,12,15)           120.8918         estimate D2E/DX2                !
 ! A32   A(10,12,16)           119.6928         estimate D2E/DX2                !
 ! A33   A(15,12,16)           119.4154         estimate D2E/DX2                !
 ! A34   A(11,13,17)           119.9167         estimate D2E/DX2                !
 ! A35   A(11,13,18)           119.8925         estimate D2E/DX2                !
 ! A36   A(17,13,18)           120.1908         estimate D2E/DX2                !
 ! A37   A(12,15,17)           120.2479         estimate D2E/DX2                !
 ! A38   A(12,15,19)           119.7339         estimate D2E/DX2                !
 ! A39   A(17,15,19)           120.0182         estimate D2E/DX2                !
 ! A40   A(13,17,15)           119.4911         estimate D2E/DX2                !
 ! A41   A(13,17,20)           120.3333         estimate D2E/DX2                !
 ! A42   A(15,17,20)           120.1756         estimate D2E/DX2                !
 ! A43   A(8,21,22)            121.0735         estimate D2E/DX2                !
 ! A44   A(8,21,23)            120.8236         estimate D2E/DX2                !
 ! A45   A(22,21,23)           118.1006         estimate D2E/DX2                !
 ! A46   A(21,22,24)           121.1258         estimate D2E/DX2                !
 ! A47   A(21,22,25)           119.1792         estimate D2E/DX2                !
 ! A48   A(24,22,25)           119.6679         estimate D2E/DX2                !
 ! A49   A(21,23,26)           121.0839         estimate D2E/DX2                !
 ! A50   A(21,23,27)           119.7534         estimate D2E/DX2                !
 ! A51   A(26,23,27)           119.1586         estimate D2E/DX2                !
 ! A52   A(22,24,28)           120.1837         estimate D2E/DX2                !
 ! A53   A(22,24,29)           119.6916         estimate D2E/DX2                !
 ! A54   A(28,24,29)           120.1215         estimate D2E/DX2                !
 ! A55   A(23,26,28)           120.1443         estimate D2E/DX2                !
 ! A56   A(23,26,30)           119.7827         estimate D2E/DX2                !
 ! A57   A(28,26,30)           120.0723         estimate D2E/DX2                !
 ! A58   A(24,28,26)           119.3499         estimate D2E/DX2                !
 ! A59   A(24,28,31)           120.3382         estimate D2E/DX2                !
 ! A60   A(26,28,31)           120.3118         estimate D2E/DX2                !
 ! A61   A(1,32,33)            107.7531         estimate D2E/DX2                !
 ! A62   A(1,32,34)            112.7413         estimate D2E/DX2                !
 ! A63   A(1,32,45)            110.5826         estimate D2E/DX2                !
 ! A64   A(33,32,34)           107.2373         estimate D2E/DX2                !
 ! A65   A(33,32,45)           107.0529         estimate D2E/DX2                !
 ! A66   A(34,32,45)           111.1907         estimate D2E/DX2                !
 ! A67   A(32,34,35)           121.1821         estimate D2E/DX2                !
 ! A68   A(32,34,36)           120.7173         estimate D2E/DX2                !
 ! A69   A(35,34,36)           118.0971         estimate D2E/DX2                !
 ! A70   A(34,35,37)           121.1447         estimate D2E/DX2                !
 ! A71   A(34,35,38)           119.1379         estimate D2E/DX2                !
 ! A72   A(37,35,38)           119.6944         estimate D2E/DX2                !
 ! A73   A(34,36,39)           121.0849         estimate D2E/DX2                !
 ! A74   A(34,36,40)           119.7371         estimate D2E/DX2                !
 ! A75   A(39,36,40)           119.1754         estimate D2E/DX2                !
 ! A76   A(35,37,41)           120.1714         estimate D2E/DX2                !
 ! A77   A(35,37,42)           119.7039         estimate D2E/DX2                !
 ! A78   A(41,37,42)           120.1222         estimate D2E/DX2                !
 ! A79   A(36,39,41)           120.1434         estimate D2E/DX2                !
 ! A80   A(36,39,43)           119.7905         estimate D2E/DX2                !
 ! A81   A(41,39,43)           120.0654         estimate D2E/DX2                !
 ! A82   A(37,41,39)           119.3453         estimate D2E/DX2                !
 ! A83   A(37,41,44)           120.3452         estimate D2E/DX2                !
 ! A84   A(39,41,44)           120.3095         estimate D2E/DX2                !
 ! A85   A(32,45,46)           108.099          estimate D2E/DX2                !
 ! A86   A(32,45,47)           109.0163         estimate D2E/DX2                !
 ! A87   A(32,45,52)           114.1211         estimate D2E/DX2                !
 ! A88   A(46,45,47)           105.8852         estimate D2E/DX2                !
 ! A89   A(46,45,52)           109.5617         estimate D2E/DX2                !
 ! A90   A(47,45,52)           109.8203         estimate D2E/DX2                !
 ! A91   A(8,49,50)            110.8802         estimate D2E/DX2                !
 ! A92   A(8,49,51)            111.076          estimate D2E/DX2                !
 ! A93   A(8,49,56)            111.0869         estimate D2E/DX2                !
 ! A94   A(50,49,51)           107.6945         estimate D2E/DX2                !
 ! A95   A(50,49,56)           108.2917         estimate D2E/DX2                !
 ! A96   A(51,49,56)           107.6684         estimate D2E/DX2                !
 ! A97   A(45,52,53)           111.4386         estimate D2E/DX2                !
 ! A98   A(45,52,54)           111.1963         estimate D2E/DX2                !
 ! A99   A(45,52,55)           111.0348         estimate D2E/DX2                !
 ! A100  A(53,52,54)           107.8969         estimate D2E/DX2                !
 ! A101  A(53,52,55)           107.3708         estimate D2E/DX2                !
 ! A102  A(54,52,55)           107.7226         estimate D2E/DX2                !
 ! A103  A(49,56,57)           109.4712         estimate D2E/DX2                !
 ! A104  A(49,56,58)           109.4712         estimate D2E/DX2                !
 ! A105  A(49,56,59)           109.4712         estimate D2E/DX2                !
 ! A106  A(57,56,58)           109.4713         estimate D2E/DX2                !
 ! A107  A(57,56,59)           109.4712         estimate D2E/DX2                !
 ! A108  A(58,56,59)           109.4712         estimate D2E/DX2                !
 ! D1    D(2,1,3,4)           -172.0613         estimate D2E/DX2                !
 ! D2    D(2,1,3,5)            -56.7127         estimate D2E/DX2                !
 ! D3    D(2,1,3,10)            71.0236         estimate D2E/DX2                !
 ! D4    D(32,1,3,4)            63.6613         estimate D2E/DX2                !
 ! D5    D(32,1,3,5)           179.0098         estimate D2E/DX2                !
 ! D6    D(32,1,3,10)          -53.2539         estimate D2E/DX2                !
 ! D7    D(48,1,3,4)           -57.8599         estimate D2E/DX2                !
 ! D8    D(48,1,3,5)            57.4887         estimate D2E/DX2                !
 ! D9    D(48,1,3,10)         -174.775          estimate D2E/DX2                !
 ! D10   D(2,1,32,33)         -161.7366         estimate D2E/DX2                !
 ! D11   D(2,1,32,34)          -43.6002         estimate D2E/DX2                !
 ! D12   D(2,1,32,45)           81.5746         estimate D2E/DX2                !
 ! D13   D(3,1,32,33)          -37.4245         estimate D2E/DX2                !
 ! D14   D(3,1,32,34)           80.7119         estimate D2E/DX2                !
 ! D15   D(3,1,32,45)         -154.1133         estimate D2E/DX2                !
 ! D16   D(48,1,32,33)          83.374          estimate D2E/DX2                !
 ! D17   D(48,1,32,34)        -158.4896         estimate D2E/DX2                !
 ! D18   D(48,1,32,45)         -33.3147         estimate D2E/DX2                !
 ! D19   D(1,3,5,6)            -58.2203         estimate D2E/DX2                !
 ! D20   D(1,3,5,7)             55.9723         estimate D2E/DX2                !
 ! D21   D(1,3,5,8)           -179.7291         estimate D2E/DX2                !
 ! D22   D(4,3,5,6)             57.1533         estimate D2E/DX2                !
 ! D23   D(4,3,5,7)            171.3459         estimate D2E/DX2                !
 ! D24   D(4,3,5,8)            -64.3555         estimate D2E/DX2                !
 ! D25   D(10,3,5,6)           174.0527         estimate D2E/DX2                !
 ! D26   D(10,3,5,7)           -71.7547         estimate D2E/DX2                !
 ! D27   D(10,3,5,8)            52.5439         estimate D2E/DX2                !
 ! D28   D(1,3,10,11)          117.3275         estimate D2E/DX2                !
 ! D29   D(1,3,10,12)          -62.6534         estimate D2E/DX2                !
 ! D30   D(4,3,10,11)            0.1374         estimate D2E/DX2                !
 ! D31   D(4,3,10,12)         -179.8435         estimate D2E/DX2                !
 ! D32   D(5,3,10,11)         -117.0141         estimate D2E/DX2                !
 ! D33   D(5,3,10,12)           63.005          estimate D2E/DX2                !
 ! D34   D(3,5,8,9)             37.7066         estimate D2E/DX2                !
 ! D35   D(3,5,8,21)           -80.4743         estimate D2E/DX2                !
 ! D36   D(3,5,8,49)           154.9335         estimate D2E/DX2                !
 ! D37   D(6,5,8,9)            -83.0894         estimate D2E/DX2                !
 ! D38   D(6,5,8,21)           158.7297         estimate D2E/DX2                !
 ! D39   D(6,5,8,49)            34.1376         estimate D2E/DX2                !
 ! D40   D(7,5,8,9)            162.1148         estimate D2E/DX2                !
 ! D41   D(7,5,8,21)            43.9338         estimate D2E/DX2                !
 ! D42   D(7,5,8,49)           -80.6583         estimate D2E/DX2                !
 ! D43   D(5,8,21,22)          120.5615         estimate D2E/DX2                !
 ! D44   D(5,8,21,23)          -60.0103         estimate D2E/DX2                !
 ! D45   D(9,8,21,22)            2.1234         estimate D2E/DX2                !
 ! D46   D(9,8,21,23)         -178.4484         estimate D2E/DX2                !
 ! D47   D(49,8,21,22)        -114.7752         estimate D2E/DX2                !
 ! D48   D(49,8,21,23)          64.653          estimate D2E/DX2                !
 ! D49   D(5,8,49,50)          -59.9924         estimate D2E/DX2                !
 ! D50   D(5,8,49,51)           59.7195         estimate D2E/DX2                !
 ! D51   D(5,8,49,56)          179.5355         estimate D2E/DX2                !
 ! D52   D(9,8,49,50)           57.3063         estimate D2E/DX2                !
 ! D53   D(9,8,49,51)          177.0182         estimate D2E/DX2                !
 ! D54   D(9,8,49,56)          -63.1657         estimate D2E/DX2                !
 ! D55   D(21,8,49,50)         174.004          estimate D2E/DX2                !
 ! D56   D(21,8,49,51)         -66.2841         estimate D2E/DX2                !
 ! D57   D(21,8,49,56)          53.532          estimate D2E/DX2                !
 ! D58   D(3,10,11,13)        -179.9569         estimate D2E/DX2                !
 ! D59   D(3,10,11,14)           0.0034         estimate D2E/DX2                !
 ! D60   D(12,10,11,13)          0.0246         estimate D2E/DX2                !
 ! D61   D(12,10,11,14)        179.9849         estimate D2E/DX2                !
 ! D62   D(3,10,12,15)         179.9729         estimate D2E/DX2                !
 ! D63   D(3,10,12,16)           0.0132         estimate D2E/DX2                !
 ! D64   D(11,10,12,15)         -0.0084         estimate D2E/DX2                !
 ! D65   D(11,10,12,16)       -179.9681         estimate D2E/DX2                !
 ! D66   D(10,11,13,17)         -0.0302         estimate D2E/DX2                !
 ! D67   D(10,11,13,18)        179.9775         estimate D2E/DX2                !
 ! D68   D(14,11,13,17)       -179.9903         estimate D2E/DX2                !
 ! D69   D(14,11,13,18)          0.0174         estimate D2E/DX2                !
 ! D70   D(10,12,15,17)         -0.0022         estimate D2E/DX2                !
 ! D71   D(10,12,15,19)        179.99           estimate D2E/DX2                !
 ! D72   D(16,12,15,17)        179.9576         estimate D2E/DX2                !
 ! D73   D(16,12,15,19)         -0.0502         estimate D2E/DX2                !
 ! D74   D(11,13,17,15)          0.019          estimate D2E/DX2                !
 ! D75   D(11,13,17,20)       -179.986          estimate D2E/DX2                !
 ! D76   D(18,13,17,15)       -179.9887         estimate D2E/DX2                !
 ! D77   D(18,13,17,20)          0.0063         estimate D2E/DX2                !
 ! D78   D(12,15,17,13)         -0.0031         estimate D2E/DX2                !
 ! D79   D(12,15,17,20)       -179.9981         estimate D2E/DX2                !
 ! D80   D(19,15,17,13)       -179.9952         estimate D2E/DX2                !
 ! D81   D(19,15,17,20)          0.0098         estimate D2E/DX2                !
 ! D82   D(8,21,22,24)        -179.2797         estimate D2E/DX2                !
 ! D83   D(8,21,22,25)          -1.1786         estimate D2E/DX2                !
 ! D84   D(23,21,22,24)          1.277          estimate D2E/DX2                !
 ! D85   D(23,21,22,25)        179.378          estimate D2E/DX2                !
 ! D86   D(8,21,23,26)         179.5784         estimate D2E/DX2                !
 ! D87   D(8,21,23,27)           0.3221         estimate D2E/DX2                !
 ! D88   D(22,21,23,26)         -0.9768         estimate D2E/DX2                !
 ! D89   D(22,21,23,27)        179.7669         estimate D2E/DX2                !
 ! D90   D(21,22,24,28)         -0.6906         estimate D2E/DX2                !
 ! D91   D(21,22,24,29)        178.6615         estimate D2E/DX2                !
 ! D92   D(25,22,24,28)       -178.7825         estimate D2E/DX2                !
 ! D93   D(25,22,24,29)          0.5696         estimate D2E/DX2                !
 ! D94   D(21,23,26,28)          0.0886         estimate D2E/DX2                !
 ! D95   D(21,23,26,30)       -179.6096         estimate D2E/DX2                !
 ! D96   D(27,23,26,28)        179.3493         estimate D2E/DX2                !
 ! D97   D(27,23,26,30)         -0.3489         estimate D2E/DX2                !
 ! D98   D(22,24,28,26)         -0.2285         estimate D2E/DX2                !
 ! D99   D(22,24,28,31)        179.6717         estimate D2E/DX2                !
 ! D100  D(29,24,28,26)       -179.5777         estimate D2E/DX2                !
 ! D101  D(29,24,28,31)          0.3224         estimate D2E/DX2                !
 ! D102  D(23,26,28,24)          0.5242         estimate D2E/DX2                !
 ! D103  D(23,26,28,31)       -179.376          estimate D2E/DX2                !
 ! D104  D(30,26,28,24)       -179.7785         estimate D2E/DX2                !
 ! D105  D(30,26,28,31)          0.3213         estimate D2E/DX2                !
 ! D106  D(1,32,34,35)        -120.0839         estimate D2E/DX2                !
 ! D107  D(1,32,34,36)          60.611          estimate D2E/DX2                !
 ! D108  D(33,32,34,35)         -1.6453         estimate D2E/DX2                !
 ! D109  D(33,32,34,36)        179.0495         estimate D2E/DX2                !
 ! D110  D(45,32,34,35)        115.0725         estimate D2E/DX2                !
 ! D111  D(45,32,34,36)        -64.2326         estimate D2E/DX2                !
 ! D112  D(1,32,45,46)          55.1407         estimate D2E/DX2                !
 ! D113  D(1,32,45,47)         -59.5186         estimate D2E/DX2                !
 ! D114  D(1,32,45,52)         177.3011         estimate D2E/DX2                !
 ! D115  D(33,32,45,46)        -61.9806         estimate D2E/DX2                !
 ! D116  D(33,32,45,47)       -176.6399         estimate D2E/DX2                !
 ! D117  D(33,32,45,52)         60.1799         estimate D2E/DX2                !
 ! D118  D(34,32,45,46)       -178.8112         estimate D2E/DX2                !
 ! D119  D(34,32,45,47)         66.5295         estimate D2E/DX2                !
 ! D120  D(34,32,45,52)        -56.6507         estimate D2E/DX2                !
 ! D121  D(32,34,35,37)        179.3316         estimate D2E/DX2                !
 ! D122  D(32,34,35,38)          1.0846         estimate D2E/DX2                !
 ! D123  D(36,34,35,37)         -1.3455         estimate D2E/DX2                !
 ! D124  D(36,34,35,38)       -179.5926         estimate D2E/DX2                !
 ! D125  D(32,34,36,39)       -179.6757         estimate D2E/DX2                !
 ! D126  D(32,34,36,40)         -0.262          estimate D2E/DX2                !
 ! D127  D(35,34,36,39)          0.9981         estimate D2E/DX2                !
 ! D128  D(35,34,36,40)       -179.5881         estimate D2E/DX2                !
 ! D129  D(34,35,37,41)          0.7355         estimate D2E/DX2                !
 ! D130  D(34,35,37,42)       -178.7            estimate D2E/DX2                !
 ! D131  D(38,35,37,41)        178.9729         estimate D2E/DX2                !
 ! D132  D(38,35,37,42)         -0.4626         estimate D2E/DX2                !
 ! D133  D(34,36,39,41)         -0.0395         estimate D2E/DX2                !
 ! D134  D(34,36,39,43)        179.6565         estimate D2E/DX2                !
 ! D135  D(40,36,39,41)       -179.4564         estimate D2E/DX2                !
 ! D136  D(40,36,39,43)          0.2395         estimate D2E/DX2                !
 ! D137  D(35,37,41,39)          0.2554         estimate D2E/DX2                !
 ! D138  D(35,37,41,44)       -179.7153         estimate D2E/DX2                !
 ! D139  D(42,37,41,39)        179.6885         estimate D2E/DX2                !
 ! D140  D(42,37,41,44)         -0.2821         estimate D2E/DX2                !
 ! D141  D(36,39,41,37)         -0.5973         estimate D2E/DX2                !
 ! D142  D(36,39,41,44)        179.3734         estimate D2E/DX2                !
 ! D143  D(43,39,41,37)        179.7076         estimate D2E/DX2                !
 ! D144  D(43,39,41,44)         -0.3218         estimate D2E/DX2                !
 ! D145  D(32,45,52,53)         62.2433         estimate D2E/DX2                !
 ! D146  D(32,45,52,54)       -177.3336         estimate D2E/DX2                !
 ! D147  D(32,45,52,55)        -57.4036         estimate D2E/DX2                !
 ! D148  D(46,45,52,53)       -176.4021         estimate D2E/DX2                !
 ! D149  D(46,45,52,54)        -55.9789         estimate D2E/DX2                !
 ! D150  D(46,45,52,55)         63.951          estimate D2E/DX2                !
 ! D151  D(47,45,52,53)        -60.4998         estimate D2E/DX2                !
 ! D152  D(47,45,52,54)         59.9233         estimate D2E/DX2                !
 ! D153  D(47,45,52,55)        179.8533         estimate D2E/DX2                !
 ! D154  D(8,49,56,57)         156.0571         estimate D2E/DX2                !
 ! D155  D(8,49,56,58)         -83.9429         estimate D2E/DX2                !
 ! D156  D(8,49,56,59)          36.0571         estimate D2E/DX2                !
 ! D157  D(50,49,56,57)         34.066          estimate D2E/DX2                !
 ! D158  D(50,49,56,58)        154.066          estimate D2E/DX2                !
 ! D159  D(50,49,56,59)        -85.934          estimate D2E/DX2                !
 ! D160  D(51,49,56,57)        -82.1182         estimate D2E/DX2                !
 ! D161  D(51,49,56,58)         37.8818         estimate D2E/DX2                !
 ! D162  D(51,49,56,59)        157.8818         estimate D2E/DX2                !
 --------------------------------------------------------------------------------
 Trust Radius=3.00D-01 FncErr=1.00D-07 GrdErr=1.00D-06 EigMax=2.50D+02 EigMin=1.00D-04
 Number of steps in this run=    341 maximum allowed number of steps=    354.
 GradGradGradGradGradGradGradGradGradGradGradGradGradGradGradGradGradGrad

 Leave Link  103 at Fri Sep 13 01:35:17 2024, MaxMem=   536870912 cpu:               0.1 elap:               0.0
 (Enter /home/jsn/save/G16-linux/g16/l202.exe)
 Stoichiometry    C27H32
 Framework group  C1[X(C27H32)]
 Deg. of freedom   171
 Full point group                 C1      NOp   1
 Largest Abelian subgroup         C1      NOp   1
 Largest concise Abelian subgroup C1      NOp   1
                         Standard orientation:                         
 ---------------------------------------------------------------------
 Center     Atomic      Atomic             Coordinates (Angstroms)
 Number     Number       Type             X           Y           Z
 ---------------------------------------------------------------------
      1          6           0        1.272968    2.023299   -0.415630
      2          1           0        1.237271    1.678368   -1.462770
      3          6           0        0.012612    1.539600    0.328708
      4          1           0        0.020025    2.025059    1.320406
      5          6           0       -1.244374    2.045692   -0.406698
      6          1           0       -1.182296    3.146494   -0.442979
      7          1           0       -1.217163    1.712138   -1.457975
      8          6           0       -2.597229    1.648566    0.221588
      9          1           0       -2.481980    1.691340    1.318116
     10          6           0        0.000502    0.044709    0.583809
     11          6           0       -0.002412   -0.447547    1.893513
     12          6           0       -0.007626   -0.876675   -0.473144
     13          6           0       -0.012628   -1.822180    2.149124
     14          1           0        0.004093    0.259208    2.728086
     15          6           0       -0.018156   -2.247258   -0.226800
     16          1           0       -0.005027   -0.517245   -1.503788
     17          6           0       -0.020743   -2.727181    1.087595
     18          1           0       -0.014359   -2.184526    3.180417
     19          1           0       -0.024535   -2.948230   -1.064504
     20          1           0       -0.028977   -3.802880    1.279537
     21          6           0       -3.024175    0.231355   -0.130875
     22          6           0       -3.242678   -0.726933    0.866705
     23          6           0       -3.221821   -0.148911   -1.467759
     24          6           0       -3.620208   -2.032401    0.543610
     25          1           0       -3.084216   -0.453009    1.912134
     26          6           0       -3.605101   -1.450152   -1.797900
     27          1           0       -3.062697    0.578644   -2.267894
     28          6           0       -3.801034   -2.401168   -0.791626
     29          1           0       -3.763248   -2.767241    1.339689
     30          1           0       -3.746892   -1.724937   -2.846407
     31          1           0       -4.091155   -3.423175   -1.047568
     32          6           0        2.622009    1.616352    0.213190
     33          1           0        2.510593    1.666179    1.310703
     34          6           0        3.026892    0.192379   -0.134461
     35          6           0        3.225479   -0.769099    0.863881
     36          6           0        3.226299   -0.190551   -1.470134
     37          6           0        3.583900   -2.080370    0.542919
     38          1           0        3.068544   -0.491390    1.908358
     39          6           0        3.591538   -1.497405   -1.798472
     40          1           0        3.085302    0.540397   -2.270560
     41          6           0        3.766199   -2.451818   -0.791380
     42          1           0        3.712138   -2.817132    1.339706
     43          1           0        3.735869   -1.774042   -2.846139
     44          1           0        4.042089   -3.478077   -1.046007
     45          6           0        3.727167    2.621401   -0.175709
     46          1           0        3.390951    3.631136    0.117260
     47          1           0        3.823765    2.642259   -1.275868
     48          1           0        1.223716    3.124329   -0.463308
     49          6           0       -3.692818    2.654667   -0.168315
     50          1           0       -3.437100    3.668350    0.179933
     51          1           0       -3.819667    2.698343   -1.262244
     52          6           0        5.085424    2.331118    0.457746
     53          1           0        5.480045    1.355615    0.134266
     54          1           0        5.824142    3.101823    0.186683
     55          1           0        5.012343    2.308313    1.558104
     56          6           0       -5.049847    2.261153    0.444235
     57          1           0       -5.669138    3.129790    0.526991
     58          1           0       -5.529170    1.539953   -0.184271
     59          1           0       -4.894105    1.840300    1.415588
 ---------------------------------------------------------------------
 Rotational constants (GHZ):           0.3232085           0.1406463           0.1150843
 Leave Link  202 at Fri Sep 13 01:35:17 2024, MaxMem=   536870912 cpu:               0.4 elap:               0.1
 (Enter /home/jsn/save/G16-linux/g16/l301.exe)
 Standard basis: def2SVP (5D, 7F)
 Ernie: Thresh=  0.10000D-02 Tol=  0.10000D-05 Strict=F.
 There are   565 symmetry adapted cartesian basis functions of A   symmetry.
 There are   538 symmetry adapted basis functions of A   symmetry.
   538 basis functions,   899 primitive gaussians,   565 cartesian basis functions
    97 alpha electrons       97 beta electrons
       nuclear repulsion energy      2512.5667756938 Hartrees.
 IExCor=  402 DFT=T Ex+Corr=B3LYP ExCW=0 ScaHFX=  0.200000
 ScaDFX=  0.800000  0.720000  1.000000  0.810000 ScalE2=  1.000000  1.000000
 IRadAn=      5 IRanWt=     -1 IRanGd=            0 ICorTp=0 IEmpDi=141
 NAtoms=   59 NActive=   59 NUniq=   59 SFac= 1.00D+00 NAtFMM=   60 NAOKFM=F Big=F
 Integral buffers will be    131072 words long.
 Raffenetti 2 integral format.
 Two-electron integral symmetry is turned on.
 R6Disp:  Grimme-D3(BJ) Dispersion energy=       -0.1459310134 Hartrees.
 Nuclear repulsion after empirical dispersion term =     2512.4208446804 Hartrees.
 ------------------------------------------------------------------------------
 Polarizable Continuum Model (PCM)
 =================================
 Model                : PCM.
 Atomic radii         : UFF (Universal Force Field).
 Polarization charges : Total charges.
 Charge compensation  : None.
 Solution method      : On-the-fly selection.
 Cavity type          : Scaled VdW (van der Waals Surface) (Alpha=1.100).
 Cavity algorithm     : GePol (No added spheres)
                        Default sphere list used, NSphG=   59.
                        Lebedev-Laikov grids with approx.  5.0 points / Ang**2.
                        Smoothing algorithm: York/Karplus (Gamma=1.0000).
                        Polarization charges: spherical gaussians, with
                                              point-specific exponents (IZeta= 3).
                        Self-potential: point-specific (ISelfS= 7).
                        Self-field    : sphere-specific E.n sum rule (ISelfD= 2).
 1st derivatives      : Analytical E(r).r(x)/FMM algorithm (CHGder, D1EAlg=3).
                        Cavity 1st derivative terms included.
 Solvent              : DiPhenylEther, Eps=   3.730000 Eps(inf)=   2.492294
 ------------------------------------------------------------------------------
 GePol: Number of generator spheres                  =      59
 GePol: Total number of spheres                      =      59
 GePol: Number of exposed spheres                    =      58 ( 98.31%)
 GePol: Number of points                             =    3569
 GePol: Average weight of points                     =       0.13
 GePol: Minimum weight of points                     =   0.19D-11
 GePol: Maximum weight of points                     =    0.20577
 GePol: Number of points with low weight             =     284
 GePol: Fraction of low-weight points (<1% of avg)   =       7.96%
 GePol: Cavity surface area                          =    461.086 Ang**2
 GePol: Cavity volume                                =    558.335 Ang**3
 Leave Link  301 at Fri Sep 13 01:35:17 2024, MaxMem=   536870912 cpu:               0.7 elap:               0.2
 (Enter /home/jsn/save/G16-linux/g16/l302.exe)
 NPDir=0 NMtPBC=     1 NCelOv=     1 NCel=       1 NClECP=     1 NCelD=      1
         NCelK=      1 NCelE2=     1 NClLst=     1 CellRange=     0.0.
 One-electron integrals computed using PRISM.
 One-electron integral symmetry used in STVInt
   1 Symmetry operations used in ECPInt.
 ECPInt:  NShTT=   33411 NPrTT=  117817 LenC2=   29941 LenP2D=   72689.
 LDataN:  DoStor=T MaxTD1= 4 Len=   56
 NBasis=   538 RedAO= T EigKep=  2.32D-04  NBF=   538
 NBsUse=   538 1.00D-06 EigRej= -1.00D+00 NBFU=   538
 Precomputing XC quadrature grid using
 IXCGrd= 4 IRadAn=           5 IRanWt=          -1 IRanGd=           0 AccXCQ= 0.00D+00.
 Generated NRdTot=       0 NPtTot=           0 NUsed=           0 NTot=          32
 NSgBfM=   562   562   562   562   562 MxSgAt=    59 MxSgA2=    59.
 Leave Link  302 at Fri Sep 13 01:35:20 2024, MaxMem=   536870912 cpu:              12.9 elap:               3.2
 (Enter /home/jsn/save/G16-linux/g16/l303.exe)
 DipDrv:  MaxL=1.
 Leave Link  303 at Fri Sep 13 01:35:21 2024, MaxMem=   536870912 cpu:               0.8 elap:               0.2
 (Enter /home/jsn/save/G16-linux/g16/l401.exe)
 ExpMin= 1.22D-01 ExpMax= 1.24D+03 ExpMxC= 1.86D+02 IAcc=3 IRadAn=         5 AccDes= 0.00D+00
 Harris functional with IExCor=  402 and IRadAn=       5 diagonalized for initial guess.
 HarFok:  IExCor=  402 AccDes= 0.00D+00 IRadAn=         5 IDoV= 1 UseB2=F ITyADJ=14
 ICtDFT=  3500011 ScaDFX=  1.000000  1.000000  1.000000  1.000000
 FoFCou: FMM=F IPFlag=           0 FMFlag=      100000 FMFlg1=           0
         NFxFlg=           0 DoJE=T BraDBF=F KetDBF=T FulRan=T
         wScrn=  0.000000 ICntrl=       500 IOpCl=  0 I1Cent=   200000004 NGrid=           0
         NMat0=    1 NMatS0=      1 NMatT0=    0 NMatD0=    1 NMtDS0=    0 NMtDT0=    0
 Petite list used in FoFCou.
 Harris En= -1047.58802127100    
 JPrj=0 DoOrth=F DoCkMO=F.
 Leave Link  401 at Fri Sep 13 01:35:43 2024, MaxMem=   536870912 cpu:              88.5 elap:              22.1
 (Enter /home/jsn/save/G16-linux/g16/l502.exe)
 Integral symmetry usage will be decided dynamically.
 Closed shell SCF:
 Using DIIS extrapolation, IDIIS=  1040.
 NGot=   536870912 LenX=   536222885 LenY=   535903095
 Requested convergence on RMS density matrix=1.00D-08 within 128 cycles.
 Requested convergence on MAX density matrix=1.00D-06.
 Requested convergence on             energy=1.00D-06.
 No special actions if energy rises.
 Fock matrices will be formed incrementally for  20 cycles.

 Cycle   1  Pass 1  IDiag  1:
 FoFJK:  IHMeth= 1 ICntrl=       0 DoSepK=F KAlg= 0 I1Cent=           0 FoldK=F
 IRaf= 820000000 NMat=       1 IRICut=       1 DoRegI=T DoRafI=F ISym2E= 0 IDoP0=0 IntGTp=1.
 FoFCou: FMM=F IPFlag=           0 FMFlag=      100000 FMFlg1=           0
         NFxFlg=           0 DoJE=F BraDBF=F KetDBF=F FulRan=T
         wScrn=  0.000000 ICntrl=         0 IOpCl=  0 I1Cent=           0 NGrid=           0
         NMat0=    1 NMatS0=      1 NMatT0=    0 NMatD0=    1 NMtDS0=    0 NMtDT0=    0
 Symmetry not used in FoFCou.
 Inv3:  Mode=1 IEnd=    38213283.
 Iteration    1 A*A^-1 deviation from unit magnitude is 3.33D-15 for    462.
 Iteration    1 A*A^-1 deviation from orthogonality  is 2.62D-15 for   3068   2714.
 Iteration    1 A^-1*A deviation from unit magnitude is 3.55D-15 for   2009.
 Iteration    1 A^-1*A deviation from orthogonality  is 2.47D-15 for   2332   1989.
 E= -1046.87217411416    
 DIIS: error= 2.12D-02 at cycle   1 NSaved=   1.
 NSaved= 1 IEnMin= 1 EnMin= -1046.87217411416     IErMin= 1 ErrMin= 2.12D-02
 ErrMax= 2.12D-02  0.00D+00 EMaxC= 1.00D-01 BMatC= 5.55D-01 BMatP= 5.55D-01
 IDIUse=3 WtCom= 7.88D-01 WtEn= 2.12D-01
 Coeff-Com:  0.100D+01
 Coeff-En:   0.100D+01
 Coeff:      0.100D+01
 Gap=     0.209 Goal=   None    Shift=    0.000
 GapD=    0.209 DampG=1.000 DampE=0.500 DampFc=0.5000 IDamp=-1.
 Damping current iteration by 5.00D-01
 RMSDP=4.42D-03 MaxDP=1.63D-01              OVMax= 1.57D-01

 Cycle   2  Pass 1  IDiag  1:
 RMSU=  2.03D-03    CP:  9.42D-01
 E= -1047.18147197304     Delta-E=       -0.309297858876 Rises=F Damp=T
 DIIS: error= 5.53D-03 at cycle   2 NSaved=   2.
 NSaved= 2 IEnMin= 2 EnMin= -1047.18147197304     IErMin= 2 ErrMin= 5.53D-03
 ErrMax= 5.53D-03  0.00D+00 EMaxC= 1.00D-01 BMatC= 2.54D-02 BMatP= 5.55D-01
 IDIUse=3 WtCom= 9.45D-01 WtEn= 5.53D-02
 Coeff-Com:  0.459D-01 0.954D+00
 Coeff-En:   0.689D-01 0.931D+00
 Coeff:      0.472D-01 0.953D+00
 Gap=     0.281 Goal=   None    Shift=    0.000
 RMSDP=1.33D-03 MaxDP=4.01D-02 DE=-3.09D-01 OVMax= 9.40D-02

 Cycle   3  Pass 1  IDiag  1:
 RMSU=  1.29D-03    CP:  9.20D-01  9.34D-01
 E= -1047.53706236049     Delta-E=       -0.355590387457 Rises=F Damp=F
 DIIS: error= 3.92D-03 at cycle   3 NSaved=   3.
 NSaved= 3 IEnMin= 3 EnMin= -1047.53706236049     IErMin= 3 ErrMin= 3.92D-03
 ErrMax= 3.92D-03  0.00D+00 EMaxC= 1.00D-01 BMatC= 1.39D-02 BMatP= 2.54D-02
 IDIUse=3 WtCom= 9.61D-01 WtEn= 3.92D-02
 Coeff-Com: -0.131D-01 0.406D+00 0.607D+00
 Coeff-En:   0.000D+00 0.000D+00 0.100D+01
 Coeff:     -0.126D-01 0.390D+00 0.622D+00
 Gap=     0.214 Goal=   None    Shift=    0.000
 RMSDP=6.09D-04 MaxDP=3.42D-02 DE=-3.56D-01 OVMax= 5.65D-02

 Cycle   4  Pass 1  IDiag  1:
 RMSU=  4.53D-04    CP:  9.14D-01  1.04D+00  7.42D-01
 E= -1047.54293104129     Delta-E=       -0.005868680801 Rises=F Damp=F
 DIIS: error= 3.20D-03 at cycle   4 NSaved=   4.
 NSaved= 4 IEnMin= 4 EnMin= -1047.54293104129     IErMin= 4 ErrMin= 3.20D-03
 ErrMax= 3.20D-03  0.00D+00 EMaxC= 1.00D-01 BMatC= 8.47D-03 BMatP= 1.39D-02
 IDIUse=3 WtCom= 9.68D-01 WtEn= 3.20D-02
 Coeff-Com: -0.163D-01 0.137D+00 0.436D+00 0.444D+00
 Coeff-En:   0.000D+00 0.000D+00 0.401D+00 0.599D+00
 Coeff:     -0.158D-01 0.132D+00 0.435D+00 0.449D+00
 Gap=     0.212 Goal=   None    Shift=    0.000
 RMSDP=2.31D-04 MaxDP=1.21D-02 DE=-5.87D-03 OVMax= 2.91D-02

 Cycle   5  Pass 1  IDiag  1:
 RMSU=  1.29D-04    CP:  9.14D-01  1.02D+00  8.26D-01  6.59D-01
 E= -1047.55214073672     Delta-E=       -0.009209695423 Rises=F Damp=F
 DIIS: error= 5.33D-04 at cycle   5 NSaved=   5.
 NSaved= 5 IEnMin= 5 EnMin= -1047.55214073672     IErMin= 5 ErrMin= 5.33D-04
 ErrMax= 5.33D-04  0.00D+00 EMaxC= 1.00D-01 BMatC= 1.83D-04 BMatP= 8.47D-03
 IDIUse=3 WtCom= 9.95D-01 WtEn= 5.33D-03
 Coeff-Com: -0.570D-02 0.199D-01 0.121D+00 0.190D+00 0.675D+00
 Coeff-En:   0.000D+00 0.000D+00 0.000D+00 0.000D+00 0.100D+01
 Coeff:     -0.567D-02 0.198D-01 0.121D+00 0.189D+00 0.676D+00
 Gap=     0.211 Goal=   None    Shift=    0.000
 RMSDP=4.35D-05 MaxDP=2.11D-03 DE=-9.21D-03 OVMax= 4.99D-03

 Cycle   6  Pass 1  IDiag  1:
 RMSU=  2.88D-05    CP:  9.14D-01  1.03D+00  8.26D-01  6.81D-01  7.60D-01
 E= -1047.55229219562     Delta-E=       -0.000151458901 Rises=F Damp=F
 DIIS: error= 2.91D-04 at cycle   6 NSaved=   6.
 NSaved= 6 IEnMin= 6 EnMin= -1047.55229219562     IErMin= 6 ErrMin= 2.91D-04
 ErrMax= 2.91D-04  0.00D+00 EMaxC= 1.00D-01 BMatC= 4.49D-05 BMatP= 1.83D-04
 IDIUse=3 WtCom= 9.97D-01 WtEn= 2.91D-03
 Coeff-Com: -0.239D-02 0.303D-02 0.442D-01 0.845D-01 0.419D+00 0.452D+00
 Coeff-En:   0.000D+00 0.000D+00 0.000D+00 0.000D+00 0.188D+00 0.812D+00
 Coeff:     -0.238D-02 0.302D-02 0.441D-01 0.842D-01 0.418D+00 0.453D+00
 Gap=     0.211 Goal=   None    Shift=    0.000
 RMSDP=1.66D-05 MaxDP=9.57D-04 DE=-1.51D-04 OVMax= 2.15D-03

 Cycle   7  Pass 1  IDiag  1:
 RMSU=  6.23D-06    CP:  9.14D-01  1.03D+00  8.28D-01  6.77D-01  7.94D-01
                    CP:  4.97D-01
 E= -1047.55234204843     Delta-E=       -0.000049852813 Rises=F Damp=F
 DIIS: error= 3.45D-05 at cycle   7 NSaved=   7.
 NSaved= 7 IEnMin= 7 EnMin= -1047.55234204843     IErMin= 7 ErrMin= 3.45D-05
 ErrMax= 3.45D-05  0.00D+00 EMaxC= 1.00D-01 BMatC= 1.04D-06 BMatP= 4.49D-05
 IDIUse=1 WtCom= 1.00D+00 WtEn= 0.00D+00
 Coeff-Com: -0.730D-03 0.824D-04 0.130D-01 0.272D-01 0.153D+00 0.209D+00
 Coeff-Com:  0.598D+00
 Coeff:     -0.730D-03 0.824D-04 0.130D-01 0.272D-01 0.153D+00 0.209D+00
 Coeff:      0.598D+00
 Gap=     0.211 Goal=   None    Shift=    0.000
 RMSDP=3.13D-06 MaxDP=1.70D-04 DE=-4.99D-05 OVMax= 3.74D-04

 Cycle   8  Pass 1  IDiag  1:
 RMSU=  2.04D-06    CP:  9.14D-01  1.03D+00  8.28D-01  6.77D-01  7.95D-01
                    CP:  5.30D-01  6.59D-01
 E= -1047.55234306015     Delta-E=       -0.000001011724 Rises=F Damp=F
 DIIS: error= 1.17D-05 at cycle   8 NSaved=   8.
 NSaved= 8 IEnMin= 8 EnMin= -1047.55234306015     IErMin= 8 ErrMin= 1.17D-05
 ErrMax= 1.17D-05  0.00D+00 EMaxC= 1.00D-01 BMatC= 1.53D-07 BMatP= 1.04D-06
 IDIUse=1 WtCom= 1.00D+00 WtEn= 0.00D+00
 Coeff-Com: -0.968D-04-0.302D-03 0.164D-02 0.437D-02 0.308D-01 0.568D-01
 Coeff-Com:  0.319D+00 0.587D+00
 Coeff:     -0.968D-04-0.302D-03 0.164D-02 0.437D-02 0.308D-01 0.568D-01
 Coeff:      0.319D+00 0.587D+00
 Gap=     0.211 Goal=   None    Shift=    0.000
 RMSDP=9.43D-07 MaxDP=5.64D-05 DE=-1.01D-06 OVMax= 1.03D-04

 Cycle   9  Pass 1  IDiag  1:
 RMSU=  5.89D-07    CP:  9.14D-01  1.03D+00  8.28D-01  6.78D-01  7.95D-01
                    CP:  5.26D-01  7.04D-01  6.84D-01
 E= -1047.55234321998     Delta-E=       -0.000000159830 Rises=F Damp=F
 DIIS: error= 1.95D-06 at cycle   9 NSaved=   9.
 NSaved= 9 IEnMin= 9 EnMin= -1047.55234321998     IErMin= 9 ErrMin= 1.95D-06
 ErrMax= 1.95D-06  0.00D+00 EMaxC= 1.00D-01 BMatC= 6.25D-09 BMatP= 1.53D-07
 IDIUse=1 WtCom= 1.00D+00 WtEn= 0.00D+00
 Coeff-Com: -0.390D-05-0.149D-03 0.131D-04 0.528D-03 0.573D-02 0.143D-01
 Coeff-Com:  0.110D+00 0.265D+00 0.604D+00
 Coeff:     -0.390D-05-0.149D-03 0.131D-04 0.528D-03 0.573D-02 0.143D-01
 Coeff:      0.110D+00 0.265D+00 0.604D+00
 Gap=     0.211 Goal=   None    Shift=    0.000
 RMSDP=2.71D-07 MaxDP=1.03D-05 DE=-1.60D-07 OVMax= 2.23D-05

 Cycle  10  Pass 1  IDiag  1:
 RMSU=  1.78D-07    CP:  9.14D-01  1.03D+00  8.28D-01  6.78D-01  7.95D-01
                    CP:  5.28D-01  7.15D-01  7.02D-01  7.10D-01
 E= -1047.55234322570     Delta-E=       -0.000000005714 Rises=F Damp=F
 DIIS: error= 8.12D-07 at cycle  10 NSaved=  10.
 NSaved=10 IEnMin=10 EnMin= -1047.55234322570     IErMin=10 ErrMin= 8.12D-07
 ErrMax= 8.12D-07  0.00D+00 EMaxC= 1.00D-01 BMatC= 8.41D-10 BMatP= 6.25D-09
 IDIUse=1 WtCom= 1.00D+00 WtEn= 0.00D+00
 Coeff-Com:  0.754D-05-0.424D-04-0.174D-03-0.179D-03-0.271D-03 0.133D-02
 Coeff-Com:  0.225D-01 0.759D-01 0.310D+00 0.591D+00
 Coeff:      0.754D-05-0.424D-04-0.174D-03-0.179D-03-0.271D-03 0.133D-02
 Coeff:      0.225D-01 0.759D-01 0.310D+00 0.591D+00
 Gap=     0.211 Goal=   None    Shift=    0.000
 RMSDP=8.32D-08 MaxDP=4.45D-06 DE=-5.71D-09 OVMax= 8.96D-06

 Cycle  11  Pass 1  IDiag  1:
 RMSU=  5.62D-08    CP:  9.14D-01  1.03D+00  8.28D-01  6.78D-01  7.95D-01
                    CP:  5.28D-01  7.15D-01  7.08D-01  7.58D-01  7.13D-01
 E= -1047.55234322652     Delta-E=       -0.000000000818 Rises=F Damp=F
 DIIS: error= 3.63D-07 at cycle  11 NSaved=  11.
 NSaved=11 IEnMin=11 EnMin= -1047.55234322652     IErMin=11 ErrMin= 3.63D-07
 ErrMax= 3.63D-07  0.00D+00 EMaxC= 1.00D-01 BMatC= 1.10D-10 BMatP= 8.41D-10
 IDIUse=1 WtCom= 1.00D+00 WtEn= 0.00D+00
 Coeff-Com:  0.397D-05-0.848D-05-0.941D-04-0.136D-03-0.628D-03-0.546D-03
 Coeff-Com:  0.232D-02 0.181D-01 0.115D+00 0.331D+00 0.535D+00
 Coeff:      0.397D-05-0.848D-05-0.941D-04-0.136D-03-0.628D-03-0.546D-03
 Coeff:      0.232D-02 0.181D-01 0.115D+00 0.331D+00 0.535D+00
 Gap=     0.211 Goal=   None    Shift=    0.000
 RMSDP=3.07D-08 MaxDP=1.40D-06 DE=-8.18D-10 OVMax= 3.60D-06

 Cycle  12  Pass 1  IDiag  1:
 RMSU=  1.65D-08    CP:  9.14D-01  1.03D+00  8.28D-01  6.78D-01  7.95D-01
                    CP:  5.28D-01  7.14D-01  7.10D-01  7.62D-01  7.54D-01
                    CP:  5.95D-01
 E= -1047.55234322663     Delta-E=       -0.000000000116 Rises=F Damp=F
 DIIS: error= 1.03D-07 at cycle  12 NSaved=  12.
 NSaved=12 IEnMin=12 EnMin= -1047.55234322663     IErMin=12 ErrMin= 1.03D-07
 ErrMax= 1.03D-07  0.00D+00 EMaxC= 1.00D-01 BMatC= 1.07D-11 BMatP= 1.10D-10
 IDIUse=1 WtCom= 1.00D+00 WtEn= 0.00D+00
 Coeff-Com:  0.154D-05-0.100D-05-0.394D-04-0.622D-04-0.339D-03-0.433D-03
 Coeff-Com: -0.686D-03 0.376D-02 0.372D-01 0.136D+00 0.305D+00 0.519D+00
 Coeff:      0.154D-05-0.100D-05-0.394D-04-0.622D-04-0.339D-03-0.433D-03
 Coeff:     -0.686D-03 0.376D-02 0.372D-01 0.136D+00 0.305D+00 0.519D+00
 Gap=     0.211 Goal=   None    Shift=    0.000
 RMSDP=8.84D-09 MaxDP=4.07D-07 DE=-1.16D-10 OVMax= 8.54D-07

 Error on total polarization charges =  0.01065
 SCF Done:  E(RB3LYP) =  -1047.55234323     A.U. after   12 cycles
            NFock= 12  Conv=0.88D-08     -V/T= 2.0122
 KE= 1.034928649004D+03 PE=-7.445732205009D+03 EE= 2.850830368099D+03
 Leave Link  502 at Fri Sep 13 01:54:46 2024, MaxMem=   536870912 cpu:            4571.7 elap:            1143.5
 (Enter /home/jsn/save/G16-linux/g16/l601.exe)
 Copying SCF densities to generalized density rwf, IOpCl= 0 IROHF=0.

 **********************************************************************

            Population analysis using the SCF density.

 **********************************************************************

 Orbital symmetries:
       Occupied  (A) (A) (A) (A) (A) (A) (A) (A) (A) (A) (A) (A)
                 (A) (A) (A) (A) (A) (A) (A) (A) (A) (A) (A) (A)
                 (A) (A) (A) (A) (A) (A) (A) (A) (A) (A) (A) (A)
                 (A) (A) (A) (A) (A) (A) (A) (A) (A) (A) (A) (A)
                 (A) (A) (A) (A) (A) (A) (A) (A) (A) (A) (A) (A)
                 (A) (A) (A) (A) (A) (A) (A) (A) (A) (A) (A) (A)
                 (A) (A) (A) (A) (A) (A) (A) (A) (A) (A) (A) (A)
                 (A) (A) (A) (A) (A) (A) (A) (A) (A) (A) (A) (A)
                 (A)
       Virtual   (A) (A) (A) (A) (A) (A) (A) (A) (A) (A) (A) (A)
                 (A) (A) (A) (A) (A) (A) (A) (A) (A) (A) (A) (A)
                 (A) (A) (A) (A) (A) (A) (A) (A) (A) (A) (A) (A)
                 (A) (A) (A) (A) (A) (A) (A) (A) (A) (A) (A) (A)
                 (A) (A) (A) (A) (A) (A) (A) (A) (A) (A) (A) (A)
                 (A) (A) (A) (A) (A) (A) (A) (A) (A) (A) (A) (A)
                 (A) (A) (A) (A) (A) (A) (A) (A) (A) (A) (A) (A)
                 (A) (A) (A) (A) (A) (A) (A) (A) (A) (A) (A) (A)
                 (A) (A) (A) (A) (A) (A) (A) (A) (A) (A) (A) (A)
                 (A) (A) (A) (A) (A) (A) (A) (A) (A) (A) (A) (A)
                 (A) (A) (A) (A) (A) (A) (A) (A) (A) (A) (A) (A)
                 (A) (A) (A) (A) (A) (A) (A) (A) (A) (A) (A) (A)
                 (A) (A) (A) (A) (A) (A) (A) (A) (A) (A) (A) (A)
                 (A) (A) (A) (A) (A) (A) (A) (A) (A) (A) (A) (A)
                 (A) (A) (A) (A) (A) (A) (A) (A) (A) (A) (A) (A)
                 (A) (A) (A) (A) (A) (A) (A) (A) (A) (A) (A) (A)
                 (A) (A) (A) (A) (A) (A) (A) (A) (A) (A) (A) (A)
                 (A) (A) (A) (A) (A) (A) (A) (A) (A) (A) (A) (A)
                 (A) (A) (A) (A) (A) (A) (A) (A) (A) (A) (A) (A)
                 (A) (A) (A) (A) (A) (A) (A) (A) (A) (A) (A) (A)
                 (A) (A) (A) (A) (A) (A) (A) (A) (A) (A) (A) (A)
                 (A) (A) (A) (A) (A) (A) (A) (A) (A) (A) (A) (A)
                 (A) (A) (A) (A) (A) (A) (A) (A) (A) (A) (A) (A)
                 (A) (A) (A) (A) (A) (A) (A) (A) (A) (A) (A) (A)
                 (A) (A) (A) (A) (A) (A) (A) (A) (A) (A) (A) (A)
                 (A) (A) (A) (A) (A) (A) (A) (A) (A) (A) (A) (A)
                 (A) (A) (A) (A) (A) (A) (A) (A) (A) (A) (A) (A)
                 (A) (A) (A) (A) (A) (A) (A) (A) (A) (A) (A) (A)
                 (A) (A) (A) (A) (A) (A) (A) (A) (A) (A) (A) (A)
                 (A) (A) (A) (A) (A) (A) (A) (A) (A) (A) (A) (A)
                 (A) (A) (A) (A) (A) (A) (A) (A) (A) (A) (A) (A)
                 (A) (A) (A) (A) (A) (A) (A) (A) (A) (A) (A) (A)
                 (A) (A) (A) (A) (A) (A) (A) (A) (A) (A) (A) (A)
                 (A) (A) (A) (A) (A) (A) (A) (A) (A) (A) (A) (A)
                 (A) (A) (A) (A) (A) (A) (A) (A) (A) (A) (A) (A)
                 (A) (A) (A) (A) (A) (A) (A) (A) (A) (A) (A) (A)
                 (A) (A) (A) (A) (A) (A) (A) (A) (A)
 The electronic state is 1-A.
 Alpha  occ. eigenvalues --  -10.18790 -10.18745 -10.18722 -10.18697 -10.18676
 Alpha  occ. eigenvalues --  -10.18518 -10.18503 -10.18407 -10.18392 -10.18349
 Alpha  occ. eigenvalues --  -10.18321 -10.18308 -10.18234 -10.18189 -10.18171
 Alpha  occ. eigenvalues --  -10.18155 -10.18138 -10.18117 -10.18091 -10.18036
 Alpha  occ. eigenvalues --  -10.18017 -10.17998 -10.17935 -10.17922 -10.17835
 Alpha  occ. eigenvalues --  -10.17347 -10.16270  -0.85448  -0.84679  -0.83888
 Alpha  occ. eigenvalues --   -0.81181  -0.79767  -0.77155  -0.73192  -0.73165
 Alpha  occ. eigenvalues --   -0.73061  -0.73022  -0.72795  -0.72083  -0.70501
 Alpha  occ. eigenvalues --   -0.66297  -0.61721  -0.61079  -0.60189  -0.59776
 Alpha  occ. eigenvalues --   -0.59409  -0.59156  -0.58889  -0.55760  -0.54940
 Alpha  occ. eigenvalues --   -0.54847  -0.51044  -0.50481  -0.50019  -0.47093
 Alpha  occ. eigenvalues --   -0.46775  -0.45988  -0.44961  -0.44552  -0.44024
 Alpha  occ. eigenvalues --   -0.43855  -0.43682  -0.43521  -0.43440  -0.42857
 Alpha  occ. eigenvalues --   -0.41509  -0.41334  -0.41112  -0.41043  -0.40634
 Alpha  occ. eigenvalues --   -0.40444  -0.38364  -0.38069  -0.37155  -0.36689
 Alpha  occ. eigenvalues --   -0.36403  -0.36187  -0.35557  -0.34872  -0.34598
 Alpha  occ. eigenvalues --   -0.34287  -0.34155  -0.34054  -0.33880  -0.33063
 Alpha  occ. eigenvalues --   -0.32357  -0.31866  -0.31740  -0.31678  -0.30940
 Alpha  occ. eigenvalues --   -0.30708  -0.25779  -0.25256  -0.24965  -0.24230
 Alpha  occ. eigenvalues --   -0.24126  -0.22068
 Alpha virt. eigenvalues --   -0.00941  -0.00817  -0.00685  -0.00232   0.00192
 Alpha virt. eigenvalues --    0.00786   0.05037   0.06032   0.06320   0.06886
 Alpha virt. eigenvalues --    0.07485   0.07827   0.08382   0.08806   0.10219
 Alpha virt. eigenvalues --    0.10295   0.10712   0.10993   0.11464   0.12162
 Alpha virt. eigenvalues --    0.12419   0.12583   0.13057   0.13479   0.13801
 Alpha virt. eigenvalues --    0.14060   0.14344   0.15140   0.15300   0.15587
 Alpha virt. eigenvalues --    0.15953   0.16215   0.16676   0.16880   0.17515
 Alpha virt. eigenvalues --    0.17666   0.18398   0.18972   0.19196   0.19408
 Alpha virt. eigenvalues --    0.20095   0.21702   0.22025   0.23384   0.23971
 Alpha virt. eigenvalues --    0.24170   0.24554   0.25927   0.26545   0.27540
 Alpha virt. eigenvalues --    0.28300   0.28498   0.28816   0.29584   0.29736
 Alpha virt. eigenvalues --    0.30092   0.31114   0.31472   0.31677   0.32761
 Alpha virt. eigenvalues --    0.33058   0.33166   0.33550   0.34330   0.34376
 Alpha virt. eigenvalues --    0.34873   0.35783   0.37500   0.38531   0.39750
 Alpha virt. eigenvalues --    0.39988   0.40569   0.41132   0.41524   0.42174
 Alpha virt. eigenvalues --    0.42913   0.43812   0.43954   0.44376   0.44656
 Alpha virt. eigenvalues --    0.45067   0.46138   0.46419   0.47000   0.47775
 Alpha virt. eigenvalues --    0.48181   0.48405   0.48450   0.48911   0.49381
 Alpha virt. eigenvalues --    0.50320   0.50895   0.51581   0.52194   0.53636
 Alpha virt. eigenvalues --    0.53840   0.54619   0.54844   0.55338   0.55608
 Alpha virt. eigenvalues --    0.56129   0.57246   0.58410   0.59093   0.60526
 Alpha virt. eigenvalues --    0.60875   0.61527   0.61570   0.62006   0.62552
 Alpha virt. eigenvalues --    0.63041   0.63480   0.63810   0.64036   0.64241
 Alpha virt. eigenvalues --    0.64665   0.64948   0.65040   0.65381   0.65586
 Alpha virt. eigenvalues --    0.65690   0.65969   0.66236   0.66626   0.66978
 Alpha virt. eigenvalues --    0.67103   0.67411   0.67599   0.67865   0.68708
 Alpha virt. eigenvalues --    0.68865   0.68963   0.68983   0.69309   0.69417
 Alpha virt. eigenvalues --    0.70122   0.70405   0.70595   0.70982   0.71271
 Alpha virt. eigenvalues --    0.71598   0.71829   0.72144   0.72317   0.72547
 Alpha virt. eigenvalues --    0.72720   0.73086   0.73846   0.74018   0.74177
 Alpha virt. eigenvalues --    0.74553   0.75132   0.75324   0.75714   0.76044
 Alpha virt. eigenvalues --    0.76318   0.76799   0.76944   0.77798   0.77903
 Alpha virt. eigenvalues --    0.78263   0.78883   0.79534   0.79975   0.80596
 Alpha virt. eigenvalues --    0.81337   0.81632   0.83878   0.84138   0.84574
 Alpha virt. eigenvalues --    0.84919   0.87056   0.88848   0.89668   0.90901
 Alpha virt. eigenvalues --    0.92421   0.92591   0.93469   0.94037   0.94868
 Alpha virt. eigenvalues --    0.97174   0.97480   0.98715   0.99409   1.02829
 Alpha virt. eigenvalues --    1.03628   1.05014   1.05358   1.06228   1.07954
 Alpha virt. eigenvalues --    1.08676   1.08905   1.09590   1.10455   1.12710
 Alpha virt. eigenvalues --    1.13564   1.15267   1.17481   1.18752   1.19252
 Alpha virt. eigenvalues --    1.20929   1.21762   1.24128   1.24879   1.25374
 Alpha virt. eigenvalues --    1.26183   1.26548   1.27199   1.27452   1.27738
 Alpha virt. eigenvalues --    1.28504   1.28701   1.28950   1.29927   1.30061
 Alpha virt. eigenvalues --    1.30880   1.31108   1.31512   1.32202   1.33144
 Alpha virt. eigenvalues --    1.33622   1.33977   1.35504   1.37719   1.37878
 Alpha virt. eigenvalues --    1.38818   1.38996   1.39656   1.40105   1.41634
 Alpha virt. eigenvalues --    1.42672   1.44536   1.45959   1.51579   1.52333
 Alpha virt. eigenvalues --    1.55052   1.56063   1.56762   1.58753   1.59900
 Alpha virt. eigenvalues --    1.60419   1.64252   1.67051   1.67300   1.67739
 Alpha virt. eigenvalues --    1.68739   1.68842   1.69046   1.70844   1.71127
 Alpha virt. eigenvalues --    1.71777   1.72237   1.73045   1.73302   1.73762
 Alpha virt. eigenvalues --    1.74400   1.74799   1.75506   1.75540   1.76333
 Alpha virt. eigenvalues --    1.76563   1.76759   1.76994   1.77131   1.77560
 Alpha virt. eigenvalues --    1.77947   1.78096   1.78200   1.78671   1.78961
 Alpha virt. eigenvalues --    1.79501   1.79744   1.79969   1.80202   1.80617
 Alpha virt. eigenvalues --    1.81195   1.81434   1.81798   1.82955   1.83122
 Alpha virt. eigenvalues --    1.83261   1.83593   1.83947   1.84501   1.85081
 Alpha virt. eigenvalues --    1.85282   1.86156   1.86801   1.87935   1.88811
 Alpha virt. eigenvalues --    1.89380   1.89736   1.90079   1.91158   1.91675
 Alpha virt. eigenvalues --    1.91973   1.92427   1.93358   1.94094   1.94682
 Alpha virt. eigenvalues --    1.95061   1.95475   1.95732   1.96380   1.96986
 Alpha virt. eigenvalues --    1.97663   1.98771   1.99022   1.99501   1.99761
 Alpha virt. eigenvalues --    2.00124   2.00172   2.00574   2.01574   2.02062
 Alpha virt. eigenvalues --    2.02454   2.03182   2.03374   2.05083   2.05391
 Alpha virt. eigenvalues --    2.06059   2.06411   2.07524   2.08607   2.09519
 Alpha virt. eigenvalues --    2.10918   2.12362   2.12753   2.13355   2.14117
 Alpha virt. eigenvalues --    2.15157   2.15451   2.15854   2.16766   2.17766
 Alpha virt. eigenvalues --    2.20322   2.21618   2.22090   2.22971   2.23579
 Alpha virt. eigenvalues --    2.24800   2.25774   2.26030   2.26584   2.28391
 Alpha virt. eigenvalues --    2.28727   2.29431   2.30913   2.31165   2.32004
 Alpha virt. eigenvalues --    2.32417   2.32985   2.33400   2.34109   2.34850
 Alpha virt. eigenvalues --    2.35143   2.35898   2.36059   2.36629   2.37138
 Alpha virt. eigenvalues --    2.37849   2.39327   2.39895   2.40523   2.41232
 Alpha virt. eigenvalues --    2.42679   2.43176   2.44934   2.45437   2.47167
 Alpha virt. eigenvalues --    2.48760   2.49990   2.52630   2.52831   2.53252
 Alpha virt. eigenvalues --    2.54286   2.54956   2.56432   2.57895   2.58929
 Alpha virt. eigenvalues --    2.61676   2.62331   2.62557   2.63112   2.63678
 Alpha virt. eigenvalues --    2.64197   2.64817   2.65423   2.65680   2.66203
 Alpha virt. eigenvalues --    2.66875   2.67536   2.68607   2.70003   2.72330
 Alpha virt. eigenvalues --    2.72951   2.73481   2.73615   2.73672   2.74510
 Alpha virt. eigenvalues --    2.74720   2.78082   2.79046   2.82395   2.84489
 Alpha virt. eigenvalues --    2.87762   2.87893   2.88290   2.88670   2.88705
 Alpha virt. eigenvalues --    2.89120   2.89493   2.90438   2.91420   2.92046
 Alpha virt. eigenvalues --    2.92382   2.94627   2.96296   2.96651   2.97774
 Alpha virt. eigenvalues --    2.99302   3.00397   3.02182   3.02880   3.03941
 Alpha virt. eigenvalues --    3.06768   3.07291   3.08932   3.09453   3.11398
 Alpha virt. eigenvalues --    3.12268   3.12843   3.13154   3.13351   3.14756
 Alpha virt. eigenvalues --    3.24972   3.25179   3.26346   3.63236   3.63316
 Alpha virt. eigenvalues --    3.63949
          Condensed to atoms (all electrons):
 Mulliken charges:
               1
     1  C    0.100246
     2  H   -0.014348
     3  C    0.015590
     4  H   -0.034009
     5  C    0.102886
     6  H   -0.015556
     7  H   -0.015346
     8  C    0.019992
     9  H   -0.031118
    10  C    0.010627
    11  C   -0.034352
    12  C    0.043703
    13  C    0.008177
    14  H   -0.033055
    15  C    0.025860
    16  H   -0.029929
    17  C    0.016523
    18  H   -0.022464
    19  H   -0.022833
    20  H   -0.020034
    21  C    0.017899
    22  C    0.007131
    23  C   -0.033731
    24  C    0.020934
    25  H   -0.028424
    26  C    0.007751
    27  H   -0.020833
    28  C    0.003393
    29  H   -0.019157
    30  H   -0.018764
    31  H   -0.016318
    32  C    0.022815
    33  H   -0.032801
    34  C    0.020227
    35  C    0.006444
    36  C   -0.035663
    37  C    0.021326
    38  H   -0.029767
    39  C    0.007581
    40  H   -0.020409
    41  C    0.003248
    42  H   -0.019025
    43  H   -0.018608
    44  H   -0.016395
    45  C    0.008786
    46  H   -0.002463
    47  H   -0.003406
    48  H   -0.016099
    49  C   -0.011514
    50  H   -0.000782
    51  H   -0.001991
    52  C    0.025932
    53  H    0.019520
    54  H    0.007375
    55  H    0.002629
    56  C    0.079243
    57  H   -0.004145
    58  H    0.006887
    59  H   -0.009388
 Sum of Mulliken charges =  -0.00000
 Mulliken charges with hydrogens summed into heavy atoms:
               1
     1  C    0.069799
     3  C   -0.018419
     5  C    0.071984
     8  C   -0.011126
    10  C    0.010627
    11  C   -0.067407
    12  C    0.013774
    13  C   -0.014287
    15  C    0.003027
    17  C   -0.003511
    21  C    0.017899
    22  C   -0.021293
    23  C   -0.054564
    24  C    0.001777
    26  C   -0.011013
    28  C   -0.012925
    32  C   -0.009987
    34  C    0.020227
    35  C   -0.023323
    36  C   -0.056072
    37  C    0.002301
    39  C   -0.011028
    41  C   -0.013147
    45  C    0.002917
    49  C   -0.014287
    52  C    0.055456
    56  C    0.072597
 Electronic spatial extent (au):  <R**2>=          10016.0507
 Charge=             -0.0000 electrons
 Dipole moment (field-independent basis, Debye):
    X=             -0.0407    Y=              0.8390    Z=              0.0253  Tot=              0.8404
 Quadrupole moment (field-independent basis, Debye-Ang):
   XX=           -177.2349   YY=           -155.0004   ZZ=           -154.9505
   XY=              0.0222   XZ=              0.1008   YZ=              0.0995
 Traceless Quadrupole moment (field-independent basis, Debye-Ang):
   XX=            -14.8396   YY=              7.3949   ZZ=              7.4448
   XY=              0.0222   XZ=              0.1008   YZ=              0.0995
 Octapole moment (field-independent basis, Debye-Ang**2):
  XXX=              0.3992  YYY=            -20.3198  ZZZ=             -1.4285  XYY=             -1.4543
  XXY=              1.9037  XXZ=             -5.7730  XZZ=             -0.8410  YZZ=             -8.1127
  YYZ=              2.8390  XYZ=             -0.1884
 Hexadecapole moment (field-independent basis, Debye-Ang**3):
 XXXX=          -9809.7774 YYYY=          -3434.4731 ZZZZ=          -1233.5479 XXXY=              3.0866
 XXXZ=              5.7281 YYYX=             -7.8750 YYYZ=              5.6052 ZZZX=              0.4844
 ZZZY=              0.1441 XXYY=          -2042.6649 XXZZ=          -1704.0489 YYZZ=           -784.3962
 XXYZ=              4.0268 YYXZ=             -3.0142 ZZXY=             -0.6501
 N-N= 2.512420844680D+03 E-N=-7.445732196724D+03  KE= 1.034928649004D+03
 No NMR shielding tensors so no spin-rotation constants.
 Leave Link  601 at Fri Sep 13 01:54:47 2024, MaxMem=   536870912 cpu:               3.1 elap:               0.9
 (Enter /home/jsn/save/G16-linux/g16/l701.exe)
 ... and contract with generalized density number  0.
 Compute integral first derivatives.
 R6Disp: Adding Grimme-D3(BJ) dispersion energy 1st derivatives to the gradient.
   1 Symmetry operations used in ECPInt.
 ECPInt:  NShTT=   33411 NPrTT=  117817 LenC2=   29941 LenP2D=   72689.
 LDataN:  DoStor=T MaxTD1= 5 Len=  102
 D1PCM: PCM CHGder 1st derivatives, ID1Alg=3 FixD1E=F DoIter=F DoCFld=F I1PDM=0.
[...]
 49,-0.00000314,0.00000053,0.00000165,-0.00000261,-0.13465300,0.1211621
 5,-0.03287672,0.14671289,-0.00000227,-0.00001945,0.00002058,-0.0000009
 1,-0.00000039,-0.00000130,-0.00003105,-0.00000958,-0.00004274,0.000001
 94,-0.00000069,0.00000456,-0.00022575,0.00005454,0.00012981,-0.0000014
 6,-0.00000634,0.00000494,0.00001252,-0.00000386,-0.00000573,-0.0009973
 9,0.00063394,0.00022710,-0.00006213,-0.00007682,0.00003804,0.00003325,
 0.00000291,0.00000909,0.00001445,-0.00000645,-0.00001599,0.00001205,-0
 .00001504,0.00001177,0.00000428,-0.00000038,-0.00000704,-0.00000525,0.
 00000228,-0.00000099,0.00001340,0.00001454,0.00000406,-0.00000775,0.00
 000236,0.00000673,0.00000395,0.00000592,0.00000128,-0.00000279,-0.0000
 0144,0.00000368,-0.00000402,-0.00000066,-0.00000128,-0.00000312,-0.000
 00344,0.00000086,0.00020166,-0.00002123,-0.00008502,0.00016568,0.00000
 010,-0.00025098,0.00015443,0.00004177,0.00029520,0.00009906,0.00012538
 ,0.00004575,-0.00005362,0.00002982,-0.00000970,-0.00002431,-0.00005547
 ,0.00002850,-0.00000187,0.00001926,-0.00000678,-0.00004024,-0.00000298
 ,-0.00008889,-0.00000947,-0.00002009,0.00001043,-0.00000625,-0.0000185
 8,-0.00002570,-0.00000841,-0.00001914,-0.00000881,-0.00000265,0.000006
 69,-0.00001053,-0.00000095,-0.00000075,-0.00000075,0.00000093,0.000005
 65,0.00000207,0.00000453,-0.00000304,-0.00000138,0.00000475,-0.0000027
 2,0.00000103,0.00000152,0.00000381,-0.00000108,-0.00000270,-0.00000009
 ,-0.00000206,0.00000127,0.00000035,0.00000164,-0.00000220,0.00000060,0
 .00000105,0.00000196,0.00000065,-0.00000027,-0.00000154,-0.00000065,0.
 00000041,-0.00000085,-0.00000083,-0.00000146,-0.00000082,-0.00000136,-
 0.00000046,0.00000057,-0.00000832,0.00000486,-0.00000034,-0.00000002,-
 0.00000002,0.00000080,0.00000043,-0.00000148,-0.00000097,0.00000167,0.
 ,-0.00487418,0.00427618,-0.00159586,0.00038209,0.00076486,-0.00024866,
 0.00033931,0.00013433,-0.00032676,0.00000196,0.00000390,-0.00000232,-0
 .00000030,-0.00000106,0.00000034,0.00000368,0.00000076,0.00000063,-0.0
 0000023,-0.00000044,0.00000051,0.12272299,-0.21198160,0.04519587,-0.13
 239153,0.22461167,0.00004986,-0.00005869,0.00007122,-0.00000109,-0.000
 00394,-0.00000494,0.00021307,0.00006782,-0.00019623,-0.00000291,0.0000
 0795,0.00000650,0.00040379,-0.00047541,0.00061470,-0.00000799,0.000044
 65,0.00002694,-0.00006515,-0.00003420,-0.00000709,0.00204600,0.0007362
 4,-0.00112818,0.00024014,-0.00012513,0.00034299,0.00001683,0.00006203,
 -0.00001239,-0.00000410,-0.00001473,-0.00001123,0.00000090,-0.00001136
 ,0.00000957,-0.00000265,0.00000005,0.00000118,0.00000453,0.00000395,0.
 00000037,0.00000146,0.00000438,0.00000154,-0.00000055,0.00000373,0.000
 00427,-0.00000099,-0.00000669,0.00000188,0.00000141,-0.00000464,0.0000
 0337,-0.00000058,-0.00000299,-0.00000065,0.00000024,-0.00000219,0.0000
 0049,0.00019846,0.00031817,0.00004171,-0.00003634,0.00005510,-0.000154
 80,-0.00000387,-0.00002412,0.00006774,-0.00002605,-0.00002897,0.000014
 29,0.00003835,-0.00002826,0.00006214,0.00001931,0.00004822,0.00001252,
 0.00001179,0.00000568,0.00000580,-0.00001165,-0.00002965,0.00002161,-0
 .00000192,-0.00001419,-0.00000139,-0.00000470,-0.00001138,-0.00000894,
 0.00000118,-0.00000383,0.00000356,0.00002387,0.00001983,-0.00002874,-0
 .00000143,0.00000028,0.00000014,0.00000101,0.00001296,0.00000443,0.000
 00136,-0.00000431,-0.00000271,0.00000192,-0.00000390,-0.00000069,-0.00
 000014,0.00000129,0.00000010,-0.00000059,0.00000070,-0.00000087,-0.000
 00004,0.00000092,0.00000106,-0.00000067,0.00000075,0.00000171,0.000000
 36,-0.00000177,-0.00000048,-0.00000008,-0.00000090,0.00000021,0.000000
 28,-0.00000081,-0.00000104,0.00000012,-0.00000084,-0.00000016,0.000008
 56,-0.00001307,0.00000870,-0.00000075,-0.00000025,0.00000010,0.0000002
 7,0.00000015,-0.00000142,-0.00000187,0.00000289,0.00000183,0.00829743,
 -0.01302422,0.00233816,-0.00051488,0.00022251,0.00038090,-0.00056936,-
 0.00042042,0.00052225,0.00000354,0.00000600,-0.00000346,0.00000011,-0.
 00000098,0.00000009,0.00000377,-0.00000003,0.00000128,-0.00000012,-0.0
 0000016,0.00000059,-0.03370914,0.04580462,-0.05824976,0.03374030,-0.04
 958001,0.05823849,0.00001640,-0.00000340,0.00000152,-0.00000089,-0.000
 00362,0.00000223,0.00005647,0.00008359,0.00000806,0.00000736,0.0000003
 3,0.00000574,-0.00010560,-0.00003505,0.00020201,0.00016275,0.00024376,
 -0.00004456,-0.00004844,0.00005208,0.00003813,0.00113212,-0.00104681,-
 0.00052352,0.00000546,0.00007119,0.00005916,-0.00001741,-0.00005176,-0
 .00000105,0.00002121,0.00002101,-0.00002570,0.00001907,0.00000322,0.00
 001238,0.00001181,-0.00000353,-0.00000812,-0.00000410,0.00000032,0.000
 00735,0.00002196,0.00001529,0.00000550,-0.00001197,-0.00000795,0.00000
 648,0.00001068,0.00002663,-0.00000194,-0.00000260,0.00000164,0.0000008
 8,-0.00000694,0.00000642,0.00000234,-0.00000471,0.00000071,0.00000024,
 -0.00060015,0.00023206,-0.00017155,0.00014854,0.00040492,-0.00028208,0
 .00018762,-0.00004061,0.00043460,0.00006249,0.00008415,-0.00002991,-0.
 00002870,0.00000539,0.00001934,0.00010489,0.00012273,0.00002358,-0.000
 04201,0.00002362,-0.00003968,-0.00009285,-0.00003741,0.00002026,-0.000
 00663,-0.00002575,0.00002088,-0.00001691,-0.00001249,-0.00003291,-0.00
 000426,-0.00003345,-0.00000991,-0.00000006,-0.00000225,0.00000031,-0.0
 0000152,-0.00000116,-0.00000010,-0.00000062,-0.00001104,-0.00000369,0.
 00000383,0.00000321,0.00000108,0.00000213,0.00000260,0.00000432,0.0000
 0212,0.00000333,-0.00000053,-0.00000230,-0.00000151,-0.00000110,0.0000
 0174,-0.00000073,-0.00000019,-0.00000077,-0.00000059,-0.00000214,0.000
 00140,0.00000361,0.00000019,-0.00000156,0.00000081,-0.00000052,-0.0000
 0146,0.00000003,0.00000065,-0.00000148,0.00000065,-0.00000008,-0.00000
 124,-0.00000199,-0.00000184,0.00000164,0.00000471,0.00000138,0.0000005
 7,-0.00000036,0.00000003,0.00001448,0.00001332,-0.00000147,-0.01331011
 ,-0.02488287,-0.01047824,-0.00496201,-0.00022142,0.00300827,0.00125618
 ,0.00043670,0.00003964,0.00000061,0.00000019,0.00000041,-0.00000194,0.
 00000160,0.00000036,-0.00000014,0.00000012,-0.00000030,-0.00000010,-0.
 00000066,-0.00000025,-0.10065949,-0.09951408,-0.03940282,0.00907510,0.
 01510288,0.00718088,0.10960973,-0.00001421,0.00002287,-0.00002974,-0.0
 0000037,0.00000063,0.00000317,-0.00003407,-0.00003932,0.00006782,-0.00
 000062,-0.00000028,-0.00000040,-0.00003890,0.00006410,-0.00013501,0.00
 002638,0.00002021,-0.00001526,-0.00002332,-0.00001601,0.00001237,0.000
 20603,0.00001475,0.00036458,-0.00001518,-0.00001781,0.00000227,0.00000
 014,-0.00003774,0.00001601,0.00000941,0.00002281,-0.00000407,0.0000211
 9,-0.00000402,-0.00000820,-0.00000428,-0.00000831,0.00000091,0.0000019
 1,-0.00000162,0.00000463,0.00000434,0.00000592,-0.00000920,-0.00000264
 ,-0.00000713,0.00000212,-0.00000307,0.00000701,0.00000876,0.00000028,0
 .00000191,-0.00000246,0.00000145,0.00000317,0.00000131,0.00000003,0.00
 000272,-0.00000009,0.00097320,-0.00064102,-0.00045540,0.00047495,-0.00
 034650,-0.00009666,0.00053718,-0.00020797,-0.00004123,0.00007798,0.000
 07550,0.00005611,-0.00007970,0.00002834,-0.00000470,-0.00003497,0.0000
 8220,0.00005267,-0.00005871,0.00000917,0.00001471,-0.00004773,0.000010
 83,-0.00004303,-0.00000755,0.00001561,-0.00000550,-0.00000400,0.000011
 18,0.00001550,-0.00000131,0.00000967,0.00000410,-0.00000645,-0.0000079
 1,0.00001345,0.00000034,-0.00000040,0.00000010,-0.00000213,-0.00001170
 ,-0.00000392,-0.00000195,0.00000464,0.00000196,-0.00000234,0.00000384,
 0.00000174,0.00000039,-0.00000146,0.00000035,0.00000074,-0.00000081,0.
 00000090,-0.00000010,-0.00000068,-0.00000151,0.00000101,-0.00000086,-0
 .00000207,-0.00000070,0.00000176,0.00000068,0.00000021,0.00000097,-0.0
 0000062,-0.00000026,0.00000069,0.00000152,-0.00000025,0.00000142,0.000
 00030,-0.00000347,0.00000624,-0.00000559,0.00000097,0.00000252,0.00000
 068,-0.00000024,-0.00000050,0.00000115,0.00000550,0.00000349,-0.000002
 18,-0.00162360,-0.00203560,0.00017327,-0.00039861,0.00097072,0.0005658
 7,-0.00010778,0.00021075,0.00015752,-0.00000149,-0.00000344,0.00000215
 ,-0.00000079,0.00000179,0.00000003,-0.00000305,-0.00000047,-0.00000082
 ,0.00000012,-0.00000008,-0.00000053,-0.10163361,-0.23066145,-0.0732565
 5,-0.01114564,-0.01781119,-0.00806489,0.11072801,0.24721794,-0.0000020
 5,0.00000909,0.00000014,0.00000102,-0.00000104,-0.00000028,-0.00004779
 ,-0.00006829,0.00000484,0.00000531,0.00000493,0.00000357,-0.00002535,0
 .00008791,-0.00009457,-0.00005994,-0.00004379,0.00000865,0.00000755,-0
 .00001895,-0.00001197,-0.00048744,-0.00033536,0.00015572,0.00002389,-0
 .00003639,0.00000456,0.00001595,-0.00001156,0.00001689,0.00001079,-0.0
 0000462,-0.00001328,0.00001496,-0.00002103,0.00000572,-0.00000133,-0.0
 0000353,-0.00000228,0.00000021,0.00000034,0.00000147,0.00000920,0.0000
 1585,-0.00000454,-0.00000200,0.00000197,0.00000097,-0.00000135,0.00000
 148,0.00000518,-0.00000267,-0.00000078,-0.00000010,-0.00000050,-0.0000
 0138,-0.00000074,-0.00000126,-0.00000006,0.00000103,0.00046732,-0.0004
 3971,0.00012254,0.00008917,-0.00027295,-0.00024040,0.00010943,0.000153
 19,0.00011191,0.00021300,0.00025655,0.00012465,-0.00009618,0.00003277,
 -0.00005394,-0.00018653,-0.00024040,-0.00002441,0.00003690,0.00001439,
 -0.00004648,-0.00003132,0.00003047,-0.00016482,-0.00000637,-0.00000110
 ,-0.00000216,0.00000385,-0.00001290,-0.00000643,-0.00000572,0.00000493
 ,-0.00001329,-0.00000107,-0.00000217,-0.00000076,0.00000024,-0.0000006
 1,0.00000044,0.00000047,-0.00000027,0.00000078,0.00000168,-0.00000049,
 -0.00000091,0.00000113,-0.00000033,0.00000076,0.00000069,0.00000114,0.
 00000012,-0.00000090,-0.00000041,-0.00000075,0.00000032,0.00000024,0.0
 0000074,-0.00000032,0.00000044,0.00000007,0.00000033,0.00000047,-0.000
 00014,-0.00000063,0.00000008,-0.00000019,0.00000002,-0.00000035,-0.000
 00044,-0.00000030,-0.00000018,0.00000009,-0.00000027,-0.00000128,0.000
 00083,-0.00000008,0.00000070,-0.00000031,0.00000011,0.00000022,-0.0000
 0007,-0.00000095,-0.00000062,-0.00000122,0.00653087,0.01386372,0.00494
 342,0.00337057,0.00025491,-0.00032271,-0.00063034,0.00048837,0.0007324
 1,0.00000047,0.00000058,-0.00000070,-0.00000027,0.00000005,0.00000031,
 0.00000071,0.00000019,0.00000007,0.00000006,-0.00000035,0.00000021,-0.
 04061919,-0.07336423,-0.07582954,0.00428011,0.00643665,0.00178507,0.04
 053037,0.07924320,0.07749371,0.00002251,-0.00000858,0.00000292,0.00000
 427,-0.00000351,-0.00000065,0.00003653,0.00002049,-0.00007153,-0.00002
 863,0.00000511,-0.00002203,0.00003884,-0.00022109,-0.00016685,0.000060
 98,0.00000106,0.00003731,0.00009150,-0.00001761,-0.00013829,0.00180317
 ,-0.00041286,0.00100944,-0.00021375,0.00015807,-0.00068871,-0.00001732
 ,-0.00000665,-0.00000693,0.00001153,0.00000572,0.00000569,-0.00000037,
 0.00000012,0.00000726,0.00000445,0.00000403,-0.00000508,-0.00000645,-0
 .00000154,-0.00000496,0.00000286,-0.00000393,-0.00000171,-0.00000139,-
 0.00000052,-0.00000139,0.00000033,0.00000165,-0.00000405,0.00000012,0.
 00000100,0.00000085,-0.00000041,-0.00000037,-0.00000022,-0.00000051,-0
 .00000116,-0.00000079,-0.00005447,-0.00004054,-0.00017753,0.00000069,0
 .00006184,0.00001896,0.00002772,-0.00009397,0.00015404,0.00000985,0.00
 002026,-0.00000656,-0.00000022,0.00003330,0.00000712,0.00001431,0.0000
 1932,-0.00006204,0.00000130,-0.00001563,-0.00008346,-0.00000085,0.0000
 1979,-0.00000727,0.00000220,-0.00000763,0.00000109,-0.00000750,-0.0000
 0164,0.00000226,0.00000079,0.00000365,-0.00000580,0.00000135,0.0000026
 2,0.00000101,-0.00000083,0.00000098,-0.00000098,-0.00000061,0.00000056
 ,-0.00000129,0.00000046,-0.00000005,0.00000077,0.00000021,-0.00000110,
 0.00000126,0.00000012,0.00000082,-0.00000057,-0.00000027,0.00000007,-0
 .00000044,0.00000012,-0.00000034,-0.00000040,0.00000037,0.00000034,-0.
 00000014,0.00000021,0.00000005,-0.00000033,-0.00000009,0.00000010,0.00
 000003,0.00000015,-0.00000036,-0.00000023,-0.00000001,-0.00000004,-0.0
 0000015,0.00000044,0.00000002,0.00000174,0.,-0.00000050,0.00000069,0.0
 0000059,-0.00000046,-0.00000123,0.00000162,0.00000182,0.00000299,0.002
 78288,-0.00134763,0.03119516,0.00120294,-0.00005875,-0.00059698,-0.005
 37654,-0.00051546,0.00282900,0.00000053,0.00000023,0.00000017,0.000000
 02,-0.00000016,-0.00000012,0.00000030,0.00000009,0.00000009,-0.0000003
 3,0.00000031,-0.00000058,-0.04877227,0.00167510,-0.02719532,-0.0020139
 1,-0.00051858,-0.01754152,-0.00199943,0.00223134,-0.01351457,0.0523699
 2,-0.00001138,0.00001524,-0.00001054,-0.00000209,-0.00000105,0.0000005
 3,0.00000458,-0.00000491,0.00002504,0.00000010,0.00000514,-0.00000107,
 0.00005593,-0.00004370,-0.00005226,-0.00002686,-0.00002618,0.00003506,
 0.00001606,-0.00003857,0.00001296,-0.00002137,0.00032292,-0.00091132,0
 .00000136,0.00016327,-0.00001585,-0.00000834,-0.00000398,-0.00000650,-
 0.00000980,0.00001133,0.00000418,0.00000058,0.00000430,-0.00000405,-0.
 00000471,-0.00000495,0.00000177,0.00000578,0.00000191,0.00000216,-0.00
 000646,-0.00000192,-0.00000143,0.00000180,-0.00000229,0.00000045,-0.00
 000168,0.00000020,0.00000433,0.00000298,-0.00000030,-0.00000057,0.0000
 0116,0.00000078,0.00000098,0.00000134,0.00000104,-0.00000048,-0.000244
 63,0.00000921,0.00005761,-0.00002917,0.00019001,0.00001374,0.00005913,
 -0.00019825,-0.00008719,-0.00012759,-0.00012564,-0.00007258,0.00010201
 ,-0.00004925,0.00006069,0.00010693,0.00021546,0.00000239,-0.00002570,0
 .00002168,0.00001067,0.00000952,-0.00002207,0.00015650,0.00000381,0.00
 000163,-0.00000416,-0.00000826,0.00001048,0.00000987,0.00000839,0.0000
 0234,0.00000891,-0.00000246,-0.00000332,0.00000679,0.00000026,0.000001
 17,-0.00000143,-0.00000122,-0.00000105,-0.00000112,-0.00000190,0.00000
 059,0.00000077,-0.00000177,0.,-0.00000031,-0.00000065,-0.00000123,0.00
 000023,0.00000124,0.00000048,0.00000070,-0.00000078,-0.00000002,-0.000
 00071,0.00000097,0.00000001,-0.00000019,-0.00000091,-0.00000067,0.0000
 0005,0.00000080,0.00000013,-0.00000002,0.00000046,0.00000015,0.0000003
 6,0.00000047,0.00000034,0.00000007,-0.00000171,0.00000605,-0.00000149,
 -0.00000008,-0.00000186,0.00000010,-0.00000006,-0.00000051,-0.00000028
 ,-0.00000146,-0.00000255,0.00000171,0.00049655,-0.00114686,0.00399837,
 0.00039385,0.00005051,0.00037472,-0.00081916,0.00092065,0.00027797,-0.
 00000126,-0.00000247,0.00000124,0.00000063,-0.00000019,-0.00000035,-0.
 00000180,-0.00000011,-0.00000012,-0.00000010,0.00000075,-0.00000070,0.
 00160909,-0.04761100,0.01609608,0.00122712,-0.00065027,0.02456608,-0.0
 0176035,0.00302890,-0.02601966,-0.00098916,0.04495847,0.00000629,-0.00
 002263,0.00002694,-0.00000332,0.00000382,0.00000156,0.00004074,-0.0000
 0088,-0.00007492,0.00001775,0.00000042,0.00001847,0.00003161,0.0000207
 1,0.00047506,-0.00005798,-0.00002861,-0.00001149,-0.00017349,0.0000071
 6,0.00004744,-0.00119312,0.00047197,0.00062038,0.00064078,-0.00059012,
 0.00036354,0.00002440,0.00004215,0.00000771,-0.00000440,-0.00002225,-0
 .00001767,-0.00000314,-0.00000485,0.00000327,-0.00000366,-0.00000028,0
 .00000185,0.00000828,0.00000601,0.00000353,0.00000157,0.00000225,0.000
 00657,-0.00000273,0.00000250,0.00000669,0.00000069,-0.00000392,0.00000
 191,0.00000240,-0.00000669,0.00000536,-0.00000122,0.00000035,0.,0.0000
 0017,-0.00000244,0.00000021,0.00014771,-0.00006432,-0.00000657,-0.0000
 4283,0.00005029,-0.00021034,0.00006128,-0.00000526,-0.00004481,-0.0000
 8113,-0.00006111,0.00001075,0.00007471,-0.00003593,0.00011921,0.000048
 46,0.00010313,0.00007780,-0.00002049,0.00000367,0.00008801,-0.00001991
 ,-0.00004777,0.00006026,-0.00000319,-0.00001954,0.00000305,-0.00000486
 ,0.00000017,-0.00000229,0.00000286,-0.00000907,0.00000946,0.00000662,0
 .00000829,-0.00001945,0.00000083,-0.00000179,0.00000442,0.00000213,0.0
 0000735,0.00000570,0.00000200,-0.00000400,-0.00000387,0.00000214,0.000
 00007,-0.00000249,0.00000026,0.00000135,0.00000050,-0.00000093,0.00000
 080,0.00000005,0.00000057,0.00000043,0.00000120,-0.00000209,-0.0000010
 1,0.00000154,0.00000071,-0.00000079,0.00000055,-0.00000011,-0.00000166
 ,0.00000049,-0.00000116,0.00000047,0.00000015,-0.00000035,-0.00000071,
 -0.00000043,0.00000380,-0.00000872,0.00000233,-0.00000058,0.00000047,-
 0.00000169,-0.00000069,0.00000110,0.00000228,-0.00000480,-0.00000274,-
 0.00000374,-0.00108304,0.00069661,-0.01364545,0.00019823,0.00025628,0.
 00075483,0.00299705,0.00064481,0.00008550,0.00000139,0.00000383,-0.000
 00346,0.00000014,-0.00000056,0.00000021,0.00000266,-0.00000006,0.00000
 049,0.00000053,-0.00000082,0.00000255,-0.02577301,0.01591637,-0.305097
 42,-0.00030305,-0.00016333,-0.00478435,-0.00057433,0.00139768,-0.00868
 948,0.02503085,-0.01853866,0.32979812\\0.00000072,-0.00000045,-0.00000
 187,-0.00000066,0.00000074,0.00000221,-0.00000306,0.00000153,0.0000017
 4,-0.00000082,-0.00000069,-0.00000065,-0.00000028,0.00000115,-0.000001
 84,0.00000068,0.00000077,0.00000072,0.00000064,0.00000129,0.00000257,-
 0.00000147,0.00000114,0.00000081,0.00000143,-0.00000175,-0.00000043,0.
 00000035,-0.00000302,-0.00000071,0.00000094,0.00000124,0.00000005,0.00
 000082,0.00000151,-0.00000072,-0.00000068,-0.00000138,0.00000098,-0.00
 000073,-0.00000021,-0.00000005,0.00000094,-0.00000281,-0.00000085,-0.0
 0000018,-0.00000044,0.00000068,-0.00000172,0.00000032,-0.00000133,0.00
 000001,-0.00000090,-0.00000039,-0.00000015,0.00000069,-0.00000038,0.00
 000060,-0.00000051,-0.00000022,0.00000192,-0.00000107,-0.00000082,0.00
 000140,0.00000010,-0.00000060,-0.00000055,0.00000074,0.00000087,0.0000
 0086,-0.00000001,-0.00000066,0.00000038,0.00000009,0.00000127,-0.00000
 132,0.00000080,-0.00000007,-0.00000114,0.00000020,0.00000009,-0.000000
 98,0.00000065,-0.00000076,-0.00000084,0.,-0.00000024,0.00000012,0.0000
 0039,-0.00000037,0.00000094,-0.00000009,-0.00000067,0.00000079,0.00000
 051,0.00000317,-0.00000089,-0.00000146,-0.00000099,-0.00000263,0.00000
 047,-0.00000222,-0.00000144,-0.00000002,-0.00000092,0.00000009,-0.0000
 0057,0.00000086,0.00000114,0.00000030,-0.00000018,-0.00000006,-0.00000
 022,0.00000114,-0.00000111,0.00000098,-0.00000007,0.00000055,0.0000002
 5,-0.00000040,0.00000101,0.,0.00000010,-0.00000018,0.00000010,-0.00000
 023,0.00000032,0.00000084,-0.00000041,-0.00000056,0.00000020,-0.000000
 99,0.00000096,-0.00000093,0.00000023,-0.00000031,0.00000003,0.00000046
 ,-0.00000003,-0.00000038,-0.00000054,0.00000090,0.00000051,-0.00000034
 ,-0.00000174,0.00000066,0.00000388,0.00000041,-0.00000025,-0.00000039,
 -0.00000034,0.00000025,-0.00000087,0.00000043,0.00000077,0.00000021,-0
 .00000001,0.00000074,0.00000045,0.00000013,0.00000024,0.00000069,0.000
 00020,-0.00000062,0.00000049,0.00000607,-0.00000073,-0.00000600,-0.000
 00068,0.00000065,0.00000066,-0.00000039,-0.00000120,0.00000193,-0.0000
 0081,-0.00000116,0.00000193\\\@


 EXPERIMENTALISTS THINK SILICON IS REALLY FUN TO USE
     ITS PLACE IN NOVEL COMPOUNDS IS CERTAIN TO AMUSE
 THEY SIT ALL DAY IN LABORATORIES MAKING ALL THIS SLUDGE
     "LOADED WITH THE SILICON THEY SAY", TO ME IT LOOKS LIKE FUDGE.
 FOR HAPPY THOUGH THEY BE WITH CRUD, I'D LIKE TO KNOW A LITTLE
      ABOUT THE PI BONDS ON THE EDGE AND SIGMAS IN THE MIDDLE.

 SO LETS DERIVE A WAVEFUNCTION.....6-31G*
     USE AN OPTIMAL GEOMETRY AND SEE WHERE ELECTRONS ARE.
 BUT WHAT OF CORRELATION?  ASKS THE WIRY LITTLE SKEPTIC.
     WE'LL THROW IN PERTURBATION AS AN ELECTRON ANTISEPTIC.
 AND WHEN THE PROGRAM GIVES US ANSWERS IN THEM WE CAN TRUST
     SINCE NOBODY CAN MAKE THE STUFF, WE HAVE NO CHOICE, WE MUST.

 SO THEORY GUYS HAVE GOT IT MADE, IN ROOMS FREE OF POLLUTION.
     INSTEAD OF PROBLEMS WITH THE REFLUX, THEY HAVE ONLY SOLUTIONS.
 AND WHEN THE FEDS ANNOUNCE THE LIST OF CARCINOGENIC TERRORS,
     THE THEORISTS SIT SAFELY AT THEIR TERMINALS FIXING ERRORS.
 IN OTHER WORDS, EXPERIMENTALISTS WILL LIKELY DIE OF CANCER
     FROM WORKING HARD YET FRUITLESSLY...TILL THEORY GIVES THE ANSWER.
          -- THOMAS A. HOLME, 1983
 Job cpu time:       0 days 16 hours 34 minutes 12.0 seconds.
 Elapsed time:       0 days  4 hours  8 minutes 40.7 seconds.
 File lengths (MBytes):  RWF=   2020 Int=      0 D2E=      0 Chk=     44 Scr=      1
 Normal termination of Gaussian 16 at Fri Sep 13 11:09:14 2024.
